# vtk DataFile Version 3.0
Vortex Output
ASCII
DATASET STRUCTURED_POINTS
FIELD FieldData 2
TIME 1 1 double
5.000000
CYCLE 1 1 int
2000
DIMENSIONS 514 130 1
ORIGIN 0 0 0
SPACING 1 1 1
POINT_DATA 66820
SCALARS u double 1
LOOKUP_TABLE default
1.000089184191e+00 1.000089184191e+00 1.000357135847e+00 1.000803929202e+00 1.001430177173e+00 1.002236093864e+00 1.003222458136e+00 1.004389631263e+00 1.005738533752e+00 1.007269640894e+00 1.008983978302e+00 1.010882089034e+00 1.012965054009e+00 1.015233424802e+00 1.017688274750e+00 1.020330091922e+00 1.023159866351e+00 1.026177938190e+00 1.029385126097e+00 1.032781526226e+00 1.036367686359e+00 1.040143352144e+00 1.044108691060e+00 1.048262983230e+00 1.052605898730e+00 1.057136131348e+00 1.061852732105e+00 1.066753685494e+00 1.071837301337e+00 1.077100734359e+00 1.082541435586e+00 1.088155617568e+00 1.093939765421e+00 1.099889051617e+00 1.105998905378e+00 1.112263382700e+00 1.118676791101e+00 1.125232022412e+00 1.131922227753e+00 1.138739122669e+00 1.145674704579e+00 1.152719542025e+00 1.159864523702e+00 1.167099145978e+00 1.174413278885e+00 1.181795468689e+00 1.189234701947e+00 1.196718742856e+00 1.204235871637e+00 1.211773279756e+00 1.219318753589e+00 1.226859154474e+00 1.234382012947e+00 1.241874125029e+00 1.249323016425e+00 1.256715691583e+00 1.264039921208e+00 1.271283186442e+00 1.278433737048e+00 1.285479779513e+00 1.292410247360e+00 1.299214288946e+00 1.305881685673e+00 1.312402702546e+00 1.318768084636e+00 1.324969340799e+00 1.330998243643e+00 1.336847623895e+00 1.342510294415e+00 1.347980439179e+00 1.353251877676e+00 1.358320138001e+00 1.363179974396e+00 1.367828218242e+00 1.372260458767e+00 1.376474768428e+00 1.380467455191e+00 1.384237759699e+00 1.387782587255e+00 1.391102273089e+00 1.394194203552e+00 1.397059742533e+00 1.399696654706e+00 1.402107280561e+00 1.404289680127e+00 1.406247136038e+00 1.407977944192e+00 1.409486313732e+00 1.410770741721e+00 1.411836365829e+00 1.412681873390e+00 1.413313346806e+00 1.413729673162e+00 1.413937903616e+00 1.413937148929e+00 1.413735473908e+00 1.413332298234e+00 1.412736763273e+00 1.411948644698e+00 1.410978173648e+00 1.409825532833e+00 1.408502055068e+00 1.407008385884e+00 1.405356957543e+00 1.403548931654e+00 1.401597817910e+00 1.399505340677e+00 1.397286041678e+00 1.394942245320e+00 1.392489454173e+00 1.389930618574e+00 1.387282103693e+00 1.384547499291e+00 1.381743907871e+00 1.378875559652e+00 1.375960143261e+00 1.373002518427e+00 1.370020784441e+00 1.367020408330e+00 1.364019702571e+00 1.361024708991e+00 1.358053736502e+00 1.355113360112e+00 1.352221652218e+00 1.349385671375e+00 1.346623007521e+00 1.343941145982e+00 1.341356938438e+00 1.338878233621e+00 1.336520882293e+00 1.334293026778e+00 1.332209250139e+00 1.330277911650e+00 1.328512058136e+00 1.326920181390e+00 1.325513523545e+00 1.324300614973e+00 1.323290625862e+00 1.322492019112e+00 1.321911627348e+00 1.321557725760e+00 1.321434552220e+00 1.321550090805e+00 1.321905822541e+00 1.322509393285e+00 1.323359316024e+00 1.324462732053e+00 1.325814968944e+00 1.327422510797e+00 1.329277320448e+00 1.331385075340e+00 1.333734230248e+00 1.336329511168e+00 1.339155763672e+00 1.342216628206e+00 1.345493290847e+00 1.348988191302e+00 1.352678866482e+00 1.356566468581e+00 1.360624966184e+00 1.364854175412e+00 1.369224656879e+00 1.373734889412e+00 1.378352272622e+00 1.383074001743e+00 1.387864653295e+00 1.392720252762e+00 1.397602983261e+00 1.402507876682e+00 1.407395240838e+00 1.412259350953e+00 1.417059238021e+00 1.421788712569e+00 1.426406194598e+00 1.430905366839e+00 1.435244753465e+00 1.439418276822e+00 1.443385307254e+00 1.447140386410e+00 1.450644473380e+00 1.453893099905e+00 1.456849528170e+00 1.459510618894e+00 1.461842593590e+00 1.463843925519e+00 1.465484364384e+00 1.466764202421e+00 1.467657174011e+00 1.468165507324e+00 1.468267267388e+00 1.467966739264e+00 1.467246736428e+00 1.466113687712e+00 1.464555221318e+00 1.462579722314e+00 1.460179593537e+00 1.457364975150e+00 1.454132919525e+00 1.450495077182e+00 1.446452937236e+00 1.442019377510e+00 1.437200032748e+00 1.432008697745e+00 1.426454797189e+00 1.420552718236e+00 1.414315271075e+00 1.407757109703e+00 1.400893993177e+00 1.393740528722e+00 1.386314971825e+00 1.378631592723e+00 1.370710690509e+00 1.362565941231e+00 1.354219248139e+00 1.345683476240e+00 1.336981718535e+00 1.328125857353e+00 1.319139795366e+00 1.310034308209e+00 1.300833769306e+00 1.291547771335e+00 1.282200865156e+00 1.272801430123e+00 1.263373949085e+00 1.253925600146e+00 1.244480600888e+00 1.235044978042e+00 1.225642533550e+00 1.216278225041e+00 1.206975332719e+00 1.197737853959e+00 1.188588481760e+00 1.179530382809e+00 1.170585633664e+00 1.161756714942e+00 1.153065088812e+00 1.144512704209e+00 1.136120436956e+00 1.127889863691e+00 1.119841322380e+00 1.111976177545e+00 1.104314292530e+00 1.096856977042e+00 1.089623691989e+00 1.082615843489e+00 1.075852565242e+00 1.069335502075e+00 1.063083532720e+00 1.057098671400e+00 1.051399604888e+00 1.045988833153e+00 1.040884898274e+00 1.036090884972e+00 1.031625215257e+00 1.027491636806e+00 1.023708446331e+00 1.020280107920e+00 1.017224750644e+00 1.014547579728e+00 1.012266470823e+00 1.010387363709e+00 1.008927748664e+00 1.007894265387e+00 1.007303850139e+00 1.007163807092e+00 1.007490379706e+00 1.008291554398e+00 1.009582606082e+00 1.011371926226e+00 1.013673332572e+00 1.016495337170e+00 1.019849837091e+00 1.023745198819e+00 1.028190936403e+00 1.033195018220e+00 1.038764124731e+00 1.044905596796e+00 1.051622856148e+00 1.058922415225e+00 1.066804043962e+00 1.075273249312e+00 1.084325784699e+00 1.093965982694e+00 1.104185230767e+00 1.114986502913e+00 1.126356468840e+00 1.138296519758e+00 1.150788238612e+00 1.163831151629e+00 1.177401364432e+00 1.191496194151e+00 1.206085868794e+00 1.221165104753e+00 1.236697872497e+00 1.252675881438e+00 1.269056531038e+00 1.285828150305e+00 1.302941376639e+00 1.320380872592e+00 1.338090502123e+00 1.356051115456e+00 1.374200020769e+00 1.392514292754e+00 1.410925164133e+00 1.429406179228e+00 1.447883251173e+00 1.466326853185e+00 1.484658601052e+00 1.502846556693e+00 1.520809298432e+00 1.538513308329e+00 1.555875581897e+00 1.572861986481e+00 1.589389534171e+00 1.605424536314e+00 1.620885715332e+00 1.635740942379e+00 1.649912392621e+00 1.663370640441e+00 1.676043066088e+00 1.687904096106e+00 1.698888045524e+00 1.708974330232e+00 1.718105877515e+00 1.726268201173e+00 1.733414434687e+00 1.739537247330e+00 1.744601448953e+00 1.748607830604e+00 1.751534149851e+00 1.753390069979e+00 1.754167070400e+00 1.753883398253e+00 1.752542569472e+00 1.750168755194e+00 1.746776423418e+00 1.742395593073e+00 1.737051537710e+00 1.730779653759e+00 1.723615317424e+00 1.715598464615e+00 1.706773470401e+00 1.697183697780e+00 1.686881101159e+00 1.675911162701e+00 1.664331769231e+00 1.652189103814e+00 1.639545207768e+00 1.626445525995e+00 1.612954444692e+00 1.599115298638e+00 1.584993073002e+00 1.570627767167e+00 1.556083367629e+00 1.541395524965e+00 1.526625845489e+00 1.511804875518e+00 1.496990722946e+00 1.482208356685e+00 1.467511555631e+00 1.452919522522e+00 1.438481166273e+00 1.424210000515e+00 1.410149794625e+00 1.396308680411e+00 1.382725255474e+00 1.369402759593e+00 1.356374778881e+00 1.343640279344e+00 1.331228138654e+00 1.319133741049e+00 1.307381652207e+00 1.295964389925e+00 1.284902653091e+00 1.274186789169e+00 1.263834087214e+00 1.253833368624e+00 1.244198953308e+00 1.234918706794e+00 1.226004385191e+00 1.217443381723e+00 1.209245247545e+00 1.201397296031e+00 1.193907180913e+00 1.186762438757e+00 1.179969081836e+00 1.173515089464e+00 1.167405039557e+00 1.161627498748e+00 1.156185773181e+00 1.151069096112e+00 1.146279625020e+00 1.141807283841e+00 1.137653170157e+00 1.133807877115e+00 1.130271501779e+00 1.127035248628e+00 1.124098248884e+00 1.121452232543e+00 1.119095379486e+00 1.117019839397e+00 1.115222839807e+00 1.113696831953e+00 1.112438079707e+00 1.111439213422e+00 1.110695518211e+00 1.110199686297e+00 1.109946015145e+00 1.109927163609e+00 1.110136463383e+00 1.110566466341e+00 1.111209512282e+00 1.112057914041e+00 1.113102992441e+00 1.114336744057e+00 1.115749488988e+00 1.117332871188e+00 1.119076257595e+00 1.120970936666e+00 1.123005395556e+00 1.125170594752e+00 1.127454238510e+00 1.129847014119e+00 1.132335960532e+00 1.134911569974e+00 1.137560350930e+00 1.140272697652e+00 1.143034736279e+00 1.145836874480e+00 1.148665013394e+00 1.151509695211e+00 1.154356758663e+00 1.157197007046e+00 1.160016380838e+00 1.162806072700e+00 1.165552287201e+00 1.168246732971e+00 1.170876036145e+00 1.173432543293e+00 1.175903451860e+00 1.178281861004e+00 1.180555678706e+00 1.182718861456e+00 1.184760153656e+00 1.186674461414e+00 1.188451475154e+00 1.190087127726e+00 1.191572145708e+00 1.192903547705e+00 1.194073163522e+00 1.195079134947e+00 1.195914434772e+00 1.196578339503e+00 1.197064972128e+00 1.197374724279e+00 1.197502838822e+00 1.197450769631e+00 1.197214827842e+00 1.196797472877e+00 1.196195997451e+00 1.195413775281e+00 1.194448987818e+00 1.193305837669e+00 1.191983295294e+00 1.190486303546e+00 1.188814513668e+00 1.186973516743e+00 1.184963529980e+00 1.182790699627e+00 1.180455690703e+00 1.177965113512e+00 1.175319963161e+00 1.172527228020e+00 1.169588119845e+00 1.166509927174e+00 1.163293972942e+00 1.159947778677e+00 1.156472684334e+00 1.152876390119e+00 1.149160173071e+00 1.145331872283e+00 1.141392638604e+00 1.137350425891e+00 1.133206214159e+00 1.128968064276e+00 1.124636760929e+00 1.120220480935e+00 1.115719810443e+00 1.111143067892e+00 1.106490659744e+00 1.101771088331e+00 1.096984621889e+00 1.092140005276e+00 1.087237432927e+00 1.082285967047e+00 1.077285815914e+00 1.072246450016e+00 1.067168202602e+00 1.062061059686e+00 1.056925614426e+00 1.051772492440e+00 1.046602706105e+00 1.041427662718e+00 1.036248979677e+00 1.031079016431e+00 1.025920266126e+00 1.020786601609e+00 1.015683981810e+00 1.010642441242e+00 1.005759625962e+00 1.000000000000e+00 1.000000000000e+00 1.000000000000e+00 1.000000000000e+00 
1.000000000000e+00 1.000089184191e+00 1.000357135847e+00 1.000803929202e+00 1.001430177173e+00 1.002236093864e+00 1.003222458136e+00 1.004389631263e+00 1.005738533752e+00 1.007269640894e+00 1.008983978302e+00 1.010882089034e+00 1.012965054009e+00 1.015233424802e+00 1.017688274750e+00 1.020330091922e+00 1.023159866351e+00 1.026177938190e+00 1.029385126097e+00 1.032781526226e+00 1.036367686359e+00 1.040143352144e+00 1.044108691060e+00 1.048262983230e+00 1.052605898730e+00 1.057136131348e+00 1.061852732105e+00 1.066753685494e+00 1.071837301337e+00 1.077100734359e+00 1.082541435586e+00 1.088155617568e+00 1.093939765421e+00 1.099889051617e+00 1.105998905378e+00 1.112263382700e+00 1.118676791101e+00 1.125232022412e+00 1.131922227753e+00 1.138739122669e+00 1.145674704579e+00 1.152719542025e+00 1.159864523702e+00 1.167099145978e+00 1.174413278885e+00 1.181795468689e+00 1.189234701947e+00 1.196718742856e+00 1.204235871637e+00 1.211773279756e+00 1.219318753589e+00 1.226859154474e+00 1.234382012947e+00 1.241874125029e+00 1.249323016425e+00 1.256715691583e+00 1.264039921208e+00 1.271283186442e+00 1.278433737048e+00 1.285479779513e+00 1.292410247360e+00 1.299214288946e+00 1.305881685673e+00 1.312402702546e+00 1.318768084636e+00 1.324969340799e+00 1.330998243643e+00 1.336847623895e+00 1.342510294415e+00 1.347980439179e+00 1.353251877676e+00 1.358320138001e+00 1.363179974396e+00 1.367828218242e+00 1.372260458767e+00 1.376474768428e+00 1.380467455191e+00 1.384237759699e+00 1.387782587255e+00 1.391102273089e+00 1.394194203552e+00 1.397059742533e+00 1.399696654706e+00 1.402107280561e+00 1.404289680127e+00 1.406247136038e+00 1.407977944192e+00 1.409486313732e+00 1.410770741721e+00 1.411836365829e+00 1.412681873390e+00 1.413313346806e+00 1.413729673162e+00 1.413937903616e+00 1.413937148929e+00 1.413735473908e+00 1.413332298234e+00 1.412736763273e+00 1.411948644698e+00 1.410978173648e+00 1.409825532833e+00 1.408502055068e+00 1.407008385884e+00 1.405356957543e+00 1.403548931654e+00 1.401597817910e+00 1.399505340677e+00 1.397286041678e+00 1.394942245320e+00 1.392489454173e+00 1.389930618574e+00 1.387282103693e+00 1.384547499291e+00 1.381743907871e+00 1.378875559652e+00 1.375960143261e+00 1.373002518427e+00 1.370020784441e+00 1.367020408330e+00 1.364019702571e+00 1.361024708991e+00 1.358053736502e+00 1.355113360112e+00 1.352221652218e+00 1.349385671375e+00 1.346623007521e+00 1.343941145982e+00 1.341356938438e+00 1.338878233621e+00 1.336520882293e+00 1.334293026778e+00 1.332209250139e+00 1.330277911650e+00 1.328512058136e+00 1.326920181390e+00 1.325513523545e+00 1.324300614973e+00 1.323290625862e+00 1.322492019112e+00 1.321911627348e+00 1.321557725760e+00 1.321434552220e+00 1.321550090805e+00 1.321905822541e+00 1.322509393285e+00 1.323359316024e+00 1.324462732053e+00 1.325814968944e+00 1.327422510797e+00 1.329277320448e+00 1.331385075340e+00 1.333734230248e+00 1.336329511168e+00 1.339155763672e+00 1.342216628206e+00 1.345493290847e+00 1.348988191302e+00 1.352678866482e+00 1.356566468581e+00 1.360624966184e+00 1.364854175412e+00 1.369224656879e+00 1.373734889412e+00 1.378352272622e+00 1.383074001743e+00 1.387864653295e+00 1.392720252762e+00 1.397602983261e+00 1.402507876682e+00 1.407395240838e+00 1.412259350953e+00 1.417059238021e+00 1.421788712569e+00 1.426406194598e+00 1.430905366839e+00 1.435244753465e+00 1.439418276822e+00 1.443385307254e+00 1.447140386410e+00 1.450644473380e+00 1.453893099905e+00 1.456849528170e+00 1.459510618894e+00 1.461842593590e+00 1.463843925519e+00 1.465484364384e+00 1.466764202421e+00 1.467657174011e+00 1.468165507324e+00 1.468267267388e+00 1.467966739264e+00 1.467246736428e+00 1.466113687712e+00 1.464555221318e+00 1.462579722314e+00 1.460179593537e+00 1.457364975150e+00 1.454132919525e+00 1.450495077182e+00 1.446452937236e+00 1.442019377510e+00 1.437200032748e+00 1.432008697745e+00 1.426454797189e+00 1.420552718236e+00 1.414315271075e+00 1.407757109703e+00 1.400893993177e+00 1.393740528722e+00 1.386314971825e+00 1.378631592723e+00 1.370710690509e+00 1.362565941231e+00 1.354219248139e+00 1.345683476240e+00 1.336981718535e+00 1.328125857353e+00 1.319139795366e+00 1.310034308209e+00 1.300833769306e+00 1.291547771335e+00 1.282200865156e+00 1.272801430123e+00 1.263373949085e+00 1.253925600146e+00 1.244480600888e+00 1.235044978042e+00 1.225642533550e+00 1.216278225041e+00 1.206975332719e+00 1.197737853959e+00 1.188588481760e+00 1.179530382809e+00 1.170585633664e+00 1.161756714942e+00 1.153065088812e+00 1.144512704209e+00 1.136120436956e+00 1.127889863691e+00 1.119841322380e+00 1.111976177545e+00 1.104314292530e+00 1.096856977042e+00 1.089623691989e+00 1.082615843489e+00 1.075852565242e+00 1.069335502075e+00 1.063083532720e+00 1.057098671400e+00 1.051399604888e+00 1.045988833153e+00 1.040884898274e+00 1.036090884972e+00 1.031625215257e+00 1.027491636806e+00 1.023708446331e+00 1.020280107920e+00 1.017224750644e+00 1.014547579728e+00 1.012266470823e+00 1.010387363709e+00 1.008927748664e+00 1.007894265387e+00 1.007303850139e+00 1.007163807092e+00 1.007490379706e+00 1.008291554398e+00 1.009582606082e+00 1.011371926226e+00 1.013673332572e+00 1.016495337170e+00 1.019849837091e+00 1.023745198819e+00 1.028190936403e+00 1.033195018220e+00 1.038764124731e+00 1.044905596796e+00 1.051622856148e+00 1.058922415225e+00 1.066804043962e+00 1.075273249312e+00 1.084325784699e+00 1.093965982694e+00 1.104185230767e+00 1.114986502913e+00 1.126356468840e+00 1.138296519758e+00 1.150788238612e+00 1.163831151629e+00 1.177401364432e+00 1.191496194151e+00 1.206085868794e+00 1.221165104753e+00 1.236697872497e+00 1.252675881438e+00 1.269056531038e+00 1.285828150305e+00 1.302941376639e+00 1.320380872592e+00 1.338090502123e+00 1.356051115456e+00 1.374200020769e+00 1.392514292754e+00 1.410925164133e+00 1.429406179228e+00 1.447883251173e+00 1.466326853185e+00 1.484658601052e+00 1.502846556693e+00 1.520809298432e+00 1.538513308329e+00 1.555875581897e+00 1.572861986481e+00 1.589389534171e+00 1.605424536314e+00 1.620885715332e+00 1.635740942379e+00 1.649912392621e+00 1.663370640441e+00 1.676043066088e+00 1.687904096106e+00 1.698888045524e+00 1.708974330232e+00 1.718105877515e+00 1.726268201173e+00 1.733414434687e+00 1.739537247330e+00 1.744601448953e+00 1.748607830604e+00 1.751534149851e+00 1.753390069979e+00 1.754167070400e+00 1.753883398253e+00 1.752542569472e+00 1.750168755194e+00 1.746776423418e+00 1.742395593073e+00 1.737051537710e+00 1.730779653759e+00 1.723615317424e+00 1.715598464615e+00 1.706773470401e+00 1.697183697780e+00 1.686881101159e+00 1.675911162701e+00 1.664331769231e+00 1.652189103814e+00 1.639545207768e+00 1.626445525995e+00 1.612954444692e+00 1.599115298638e+00 1.584993073002e+00 1.570627767167e+00 1.556083367629e+00 1.541395524965e+00 1.526625845489e+00 1.511804875518e+00 1.496990722946e+00 1.482208356685e+00 1.467511555631e+00 1.452919522522e+00 1.438481166273e+00 1.424210000515e+00 1.410149794625e+00 1.396308680411e+00 1.382725255474e+00 1.369402759593e+00 1.356374778881e+00 1.343640279344e+00 1.331228138654e+00 1.319133741049e+00 1.307381652207e+00 1.295964389925e+00 1.284902653091e+00 1.274186789169e+00 1.263834087214e+00 1.253833368624e+00 1.244198953308e+00 1.234918706794e+00 1.226004385191e+00 1.217443381723e+00 1.209245247545e+00 1.201397296031e+00 1.193907180913e+00 1.186762438757e+00 1.179969081836e+00 1.173515089464e+00 1.167405039557e+00 1.161627498748e+00 1.156185773181e+00 1.151069096112e+00 1.146279625020e+00 1.141807283841e+00 1.137653170157e+00 1.133807877115e+00 1.130271501779e+00 1.127035248628e+00 1.124098248884e+00 1.121452232543e+00 1.119095379486e+00 1.117019839397e+00 1.115222839807e+00 1.113696831953e+00 1.112438079707e+00 1.111439213422e+00 1.110695518211e+00 1.110199686297e+00 1.109946015145e+00 1.109927163609e+00 1.110136463383e+00 1.110566466341e+00 1.111209512282e+00 1.112057914041e+00 1.113102992441e+00 1.114336744057e+00 1.115749488988e+00 1.117332871188e+00 1.119076257595e+00 1.120970936666e+00 1.123005395556e+00 1.125170594752e+00 1.127454238510e+00 1.129847014119e+00 1.132335960532e+00 1.134911569974e+00 1.137560350930e+00 1.140272697652e+00 1.143034736279e+00 1.145836874480e+00 1.148665013394e+00 1.151509695211e+00 1.154356758663e+00 1.157197007046e+00 1.160016380838e+00 1.162806072700e+00 1.165552287201e+00 1.168246732971e+00 1.170876036145e+00 1.173432543293e+00 1.175903451860e+00 1.178281861004e+00 1.180555678706e+00 1.182718861456e+00 1.184760153656e+00 1.186674461414e+00 1.188451475154e+00 1.190087127726e+00 1.191572145708e+00 1.192903547705e+00 1.194073163522e+00 1.195079134947e+00 1.195914434772e+00 1.196578339503e+00 1.197064972128e+00 1.197374724279e+00 1.197502838822e+00 1.197450769631e+00 1.197214827842e+00 1.196797472877e+00 1.196195997451e+00 1.195413775281e+00 1.194448987818e+00 1.193305837669e+00 1.191983295294e+00 1.190486303546e+00 1.188814513668e+00 1.186973516743e+00 1.184963529980e+00 1.182790699627e+00 1.180455690703e+00 1.177965113512e+00 1.175319963161e+00 1.172527228020e+00 1.169588119845e+00 1.166509927174e+00 1.163293972942e+00 1.159947778677e+00 1.156472684334e+00 1.152876390119e+00 1.149160173071e+00 1.145331872283e+00 1.141392638604e+00 1.137350425891e+00 1.133206214159e+00 1.128968064276e+00 1.124636760929e+00 1.120220480935e+00 1.115719810443e+00 1.111143067892e+00 1.106490659744e+00 1.101771088331e+00 1.096984621889e+00 1.092140005276e+00 1.087237432927e+00 1.082285967047e+00 1.077285815914e+00 1.072246450016e+00 1.067168202602e+00 1.062061059686e+00 1.056925614426e+00 1.051772492440e+00 1.046602706105e+00 1.041427662718e+00 1.036248979677e+00 1.031079016431e+00 1.025920266126e+00 1.020786601609e+00 1.015683981810e+00 1.010642441242e+00 1.005759625962e+00 1.000000000000e+00 1.000000000000e+00 1.000000000000e+00 1.000000000000e+00 
1.000000000000e+00 1.000089240884e+00 1.000356990180e+00 1.000803766149e+00 1.001429703389e+00 1.002235502177e+00 1.003221458418e+00 1.004388432183e+00 1.005736855962e+00 1.007267719006e+00 1.008981549966e+00 1.010879423583e+00 1.012961911601e+00 1.015230117702e+00 1.017684590908e+00 1.020326394342e+00 1.023155975856e+00 1.026174275815e+00 1.029381550259e+00 1.032778522513e+00 1.036365154905e+00 1.040141848509e+00 1.044108160288e+00 1.048264054753e+00 1.052608564371e+00 1.057141096322e+00 1.061860035120e+00 1.066764106951e+00 1.071850924721e+00 1.077118411633e+00 1.082563290265e+00 1.088182566048e+00 1.093971963532e+00 1.099927469183e+00 1.106043719679e+00 1.112315601911e+00 1.118736599992e+00 1.125300448411e+00 1.131999446418e+00 1.138826157911e+00 1.145771703998e+00 1.152827500289e+00 1.159983540743e+00 1.167230159585e+00 1.174556322071e+00 1.181951394185e+00 1.189403458760e+00 1.196901071494e+00 1.204431624028e+00 1.211983059652e+00 1.219542308576e+00 1.227096931133e+00 1.234633654626e+00 1.242139905968e+00 1.249602484315e+00 1.257008939002e+00 1.264346417702e+00 1.271602839424e+00 1.278765964112e+00 1.285824304480e+00 1.292766469752e+00 1.299581754276e+00 1.306259815337e+00 1.312790870913e+00 1.319165778911e+00 1.325375771171e+00 1.331413008773e+00 1.337269774502e+00 1.342939585742e+00 1.348415763169e+00 1.353693188795e+00 1.358766164801e+00 1.363630909214e+00 1.368282615661e+00 1.372718782644e+00 1.376935382846e+00 1.380931123713e+00 1.384702634051e+00 1.388249753436e+00 1.391569644454e+00 1.394663206153e+00 1.397528022737e+00 1.400165991681e+00 1.402575024275e+00 1.404757972013e+00 1.406713001340e+00 1.408443892454e+00 1.409949020104e+00 1.411233086920e+00 1.412294654313e+00 1.413139357818e+00 1.413765947100e+00 1.414181013671e+00 1.414383516995e+00 1.414381037201e+00 1.414172794550e+00 1.413767416029e+00 1.413164448559e+00 1.412373598831e+00 1.411394794853e+00 1.410238842044e+00 1.408906106806e+00 1.407408499783e+00 1.405746882442e+00 1.403934259273e+00 1.401972038420e+00 1.399874284781e+00 1.397642996478e+00 1.395293240458e+00 1.392827637465e+00 1.390262171392e+00 1.387600106064e+00 1.384858229825e+00 1.382040457270e+00 1.379164241902e+00 1.376234144291e+00 1.373268118504e+00 1.370271354497e+00 1.367262119079e+00 1.364246204102e+00 1.361241980603e+00 1.358255805043e+00 1.355305926444e+00 1.352399219963e+00 1.349553571853e+00 1.346776322465e+00 1.344084743238e+00 1.341486579384e+00 1.338998227319e+00 1.336627770316e+00 1.334390464311e+00 1.332294657282e+00 1.330354196585e+00 1.328577614358e+00 1.326977080812e+00 1.325561223287e+00 1.324340267493e+00 1.323322836756e+00 1.322516947463e+00 1.321931107814e+00 1.321570866170e+00 1.321444498932e+00 1.321554857967e+00 1.321909905075e+00 1.322509619238e+00 1.323361535239e+00 1.324462542618e+00 1.325819595851e+00 1.327426298846e+00 1.329288872140e+00 1.331397471048e+00 1.333757431061e+00 1.336355334609e+00 1.339195488258e+00 1.342260823641e+00 1.345554489005e+00 1.349055742964e+00 1.352766469557e+00 1.356662297869e+00 1.360743775258e+00 1.364983020204e+00 1.369379214140e+00 1.373901167671e+00 1.378546719038e+00 1.383281663544e+00 1.388102577709e+00 1.392972626820e+00 1.397887269895e+00 1.402807519159e+00 1.407727923641e+00 1.412607905538e+00 1.417441371215e+00 1.422186791416e+00 1.426837749058e+00 1.431352461917e+00 1.435724548168e+00 1.439912710478e+00 1.443910983909e+00 1.447679308472e+00 1.451212520545e+00 1.454472536518e+00 1.457455358752e+00 1.460125575748e+00 1.462480677103e+00 1.464488545925e+00 1.466148414141e+00 1.467431981681e+00 1.468340394736e+00 1.468849578324e+00 1.468962693915e+00 1.468660234839e+00 1.467947486799e+00 1.466809764644e+00 1.465254411258e+00 1.463271577912e+00 1.460870486502e+00 1.458046040241e+00 1.454809114939e+00 1.451159190251e+00 1.447108528336e+00 1.442660925892e+00 1.437829730701e+00 1.432622725342e+00 1.427054021584e+00 1.421135000036e+00 1.414880207281e+00 1.408304193876e+00 1.401421617779e+00 1.394249747933e+00 1.386803048324e+00 1.379101047412e+00 1.371157738665e+00 1.362994458664e+00 1.354624491202e+00 1.346070549900e+00 1.337345013237e+00 1.328471571627e+00 1.319461549736e+00 1.310339253379e+00 1.301114853243e+00 1.291812953578e+00 1.282442518294e+00 1.273028180761e+00 1.263577689912e+00 1.254115487717e+00 1.244648140350e+00 1.235199726019e+00 1.225775695639e+00 1.216399637335e+00 1.207075983822e+00 1.197827749593e+00 1.188658469868e+00 1.179590540584e+00 1.170626737986e+00 1.161788828377e+00 1.153078979857e+00 1.144518346658e+00 1.136108646828e+00 1.127870463250e+00 1.119805224795e+00 1.111933001211e+00 1.104255091934e+00 1.096791123515e+00 1.089542421169e+00 1.082528244056e+00 1.075750090893e+00 1.069226929185e+00 1.062960568673e+00 1.056969754779e+00 1.051256732997e+00 1.045840083765e+00 1.040722597489e+00 1.035922727634e+00 1.031443899980e+00 1.027304452961e+00 1.023508515856e+00 1.020074290710e+00 1.017006652072e+00 1.014323604002e+00 1.012030778177e+00 1.010145873843e+00 1.008675261263e+00 1.007636184365e+00 1.007035713104e+00 1.006890460732e+00 1.007208162849e+00 1.008004596064e+00 1.009288031071e+00 1.011073004570e+00 1.013368040234e+00 1.016185963295e+00 1.019535269307e+00 1.023426599508e+00 1.027868154660e+00 1.032867929471e+00 1.038433587195e+00 1.044570038951e+00 1.051284201095e+00 1.058577500934e+00 1.066455932512e+00 1.074917076852e+00 1.083965852474e+00 1.093595658508e+00 1.103810183992e+00 1.114598318114e+00 1.125962337161e+00 1.137886279121e+00 1.150370769159e+00 1.163394626034e+00 1.176956515996e+00 1.191029645027e+00 1.205610346942e+00 1.220665816398e+00 1.236189639738e+00 1.252142636371e+00 1.268515231168e+00 1.285261593063e+00 1.302368627056e+00 1.319783725520e+00 1.337490028433e+00 1.355428231757e+00 1.373577629765e+00 1.391872552904e+00 1.410288570171e+00 1.428754253128e+00 1.447241783910e+00 1.465674859682e+00 1.484022827937e+00 1.502205653753e+00 1.520190593340e+00 1.537895242010e+00 1.555285663736e+00 1.572278617617e+00 1.588839989054e+00 1.604887353553e+00 1.620387506532e+00 1.635260562440e+00 1.649475356897e+00 1.662956293611e+00 1.675675395194e+00 1.687563098251e+00 1.698595757869e+00 1.708711551416e+00 1.717892295852e+00 1.726085553324e+00 1.733279698914e+00 1.739433226960e+00 1.744542106851e+00 1.748577166557e+00 1.751542881975e+00 1.753423534129e+00 1.754232600011e+00 1.753967933152e+00 1.752650506315e+00 1.750289529398e+00 1.746911982346e+00 1.742538101477e+00 1.737200572648e+00 1.730930186971e+00 1.723764677091e+00 1.715744474784e+00 1.706911377105e+00 1.697314174806e+00 1.686997502589e+00 1.676016949782e+00 1.664418603340e+00 1.652263108143e+00 1.639596550078e+00 1.626482805058e+00 1.612966528291e+00 1.599113020889e+00 1.584964187636e+00 1.570585059882e+00 1.556013656285e+00 1.541313232045e+00 1.526517024715e+00 1.511685253740e+00 1.496845756852e+00 1.482054740611e+00 1.467334313311e+00 1.452735986429e+00 1.438276089139e+00 1.424001041255e+00 1.409921594707e+00 1.396078939054e+00 1.382478659298e+00 1.369156793095e+00 1.356114324942e+00 1.343382387131e+00 1.330958030551e+00 1.318867846035e+00 1.307105664710e+00 1.295693969334e+00 1.284624084983e+00 1.273914847853e+00 1.263555752746e+00 1.253562446229e+00 1.243923203325e+00 1.234650909884e+00 1.225733149256e+00 1.217180432617e+00 1.208980089255e+00 1.201140591227e+00 1.193649359935e+00 1.186513111219e+00 1.179719617570e+00 1.173274070432e+00 1.167164772731e+00 1.161395576049e+00 1.155955422840e+00 1.150846966988e+00 1.146059839369e+00 1.141595601191e+00 1.137444570442e+00 1.133607288668e+00 1.130074718929e+00 1.126846428983e+00 1.123913952998e+00 1.121275908300e+00 1.118924302440e+00 1.116856807743e+00 1.115065791435e+00 1.113547973269e+00 1.112295958287e+00 1.111305498995e+00 1.110569317007e+00 1.110082184002e+00 1.109836829235e+00 1.109827044588e+00 1.110045479687e+00 1.110484939759e+00 1.111137879982e+00 1.111996088592e+00 1.113051730707e+00 1.114295579325e+00 1.115719454730e+00 1.117313148066e+00 1.119068116071e+00 1.120973229132e+00 1.123019594094e+00 1.125195246815e+00 1.127490987081e+00 1.129894124879e+00 1.132395221246e+00 1.134980988040e+00 1.137641836985e+00 1.140364024747e+00 1.143137919597e+00 1.145949476990e+00 1.148789139298e+00 1.151642721689e+00 1.154500865441e+00 1.157349409459e+00 1.160179321975e+00 1.162976629269e+00 1.165732754325e+00 1.168434070916e+00 1.171072581281e+00 1.173635160409e+00 1.176114508271e+00 1.178498145685e+00 1.180779580275e+00 1.182947111463e+00 1.184995153403e+00 1.186912902261e+00 1.188695764010e+00 1.190333932052e+00 1.191823873141e+00 1.193156857473e+00 1.194330462102e+00 1.195337088839e+00 1.196175451388e+00 1.196839108665e+00 1.197327909511e+00 1.197636560683e+00 1.197766011869e+00 1.197712069964e+00 1.197476719354e+00 1.197056790225e+00 1.196455222718e+00 1.195669784043e+00 1.194704288099e+00 1.193557343839e+00 1.192233552278e+00 1.190732259436e+00 1.189058762442e+00 1.187213031679e+00 1.185200966879e+00 1.183023044948e+00 1.180685675056e+00 1.178189721319e+00 1.175542012712e+00 1.172743683678e+00 1.169801900045e+00 1.166717955957e+00 1.163499280668e+00 1.160147227216e+00 1.156669426774e+00 1.153067203438e+00 1.149348342627e+00 1.145514067294e+00 1.141572284652e+00 1.137524062148e+00 1.133377412461e+00 1.129133212725e+00 1.124799581366e+00 1.120377191245e+00 1.115874283587e+00 1.111291334791e+00 1.106636742616e+00 1.101910817220e+00 1.097122163097e+00 1.092270977201e+00 1.087366137204e+00 1.082407802982e+00 1.077405207917e+00 1.072358574242e+00 1.067277589711e+00 1.062162661921e+00 1.057024048112e+00 1.051862488227e+00 1.046688941360e+00 1.041504651683e+00 1.036321432672e+00 1.031141240486e+00 1.025976978065e+00 1.020831928398e+00 1.015722662111e+00 1.010668563879e+00 1.005778218061e+00 1.000000000000e+00 1.000000000000e+00 1.000000000000e+00 1.000000000000e+00 