# vtk DataFile Version 3.0
Vortex Output
ASCII
DATASET STRUCTURED_POINTS
FIELD FieldData 2
TIME 1 1 double
5.000000
CYCLE 1 1 int
2000
DIMENSIONS 514 130 1
ORIGIN 0 0 0
SPACING 1 1 1
POINT_DATA 66820
SCALARS u double 1
LOOKUP_TABLE default
1.000079804576e+00 1.000079804576e+00 1.000328280998e+00 1.000736830705e+00 1.001316190387e+00 1.002056860108e+00 1.002969882621e+00 1.004045976647e+00 1.005296397446e+00 1.006712032785e+00 1.008304314290e+00 1.010064250254e+00 1.012003401374e+00 1.014112834232e+00 1.016404177668e+00 1.018868481089e+00 1.021517367955e+00 1.024341782657e+00 1.027353257666e+00 1.030542532477e+00 1.033920951443e+00 1.037478938410e+00 1.041227542804e+00 1.045156753596e+00 1.049277211513e+00 1.053578345899e+00 1.058070271148e+00 1.062741730084e+00 1.067602193063e+00 1.072639591660e+00 1.077862639215e+00 1.083258338847e+00 1.088834544483e+00 1.094577227418e+00 1.100493296998e+00 1.106567610088e+00 1.112806070585e+00 1.119192366145e+00 1.125731365574e+00 1.132405566998e+00 1.139218811929e+00 1.146152428712e+00 1.153209281681e+00 1.160369593177e+00 1.167635345706e+00 1.174985765025e+00 1.182422092647e+00 1.189922711506e+00 1.197488305527e+00 1.205096608288e+00 1.212747965786e+00 1.220419687390e+00 1.228112027519e+00 1.235802117165e+00 1.243490379915e+00 1.251154021635e+00 1.258793896189e+00 1.266387530537e+00 1.273936455646e+00 1.281418744461e+00 1.288836823695e+00 1.296169502961e+00 1.303420283284e+00 1.310568857222e+00 1.317619929777e+00 1.324554171621e+00 1.331377567423e+00 1.338071807344e+00 1.344644176300e+00 1.351077372790e+00 1.357379950032e+00 1.363535555978e+00 1.369553933364e+00 1.375419580515e+00 1.381143311941e+00 1.386710346424e+00 1.392132422716e+00 1.397395329481e+00 1.402511561915e+00 1.407467317516e+00 1.412275668996e+00 1.416923060673e+00 1.421422960952e+00 1.425761906375e+00 1.429953583346e+00 1.433984480526e+00 1.437868334487e+00 1.441591466067e+00 1.445167508531e+00 1.448582519510e+00 1.451849893248e+00 1.454955356571e+00 1.457911949258e+00 1.460705029737e+00 1.463347189921e+00 1.465823413604e+00 1.468145774638e+00 1.470298907834e+00 1.472294322620e+00 1.474116362111e+00 1.475775948842e+00 1.477257222065e+00 1.478570518297e+00 1.479699889235e+00 1.480655108230e+00 1.481420280916e+00 1.482004659618e+00 1.482392565189e+00 1.482592784900e+00 1.482590028317e+00 1.482392710461e+00 1.481986181336e+00 1.481378617800e+00 1.480556212537e+00 1.479526990664e+00 1.478278188539e+00 1.476817784841e+00 1.475134262510e+00 1.473235660499e+00 1.471111899781e+00 1.468771182414e+00 1.466205041257e+00 1.463421935501e+00 1.460415159393e+00 1.457193510136e+00 1.453752163220e+00 1.450100318322e+00 1.446235118178e+00 1.442166210623e+00 1.437892754908e+00 1.433424872722e+00 1.428763750988e+00 1.423919990899e+00 1.418896780182e+00 1.413705186229e+00 1.408350334142e+00 1.402843727363e+00 1.397192331091e+00 1.391408040739e+00 1.385499534161e+00 1.379479044250e+00 1.373356808319e+00 1.367145335675e+00 1.360856248928e+00 1.354502270088e+00 1.348096216863e+00 1.341650961338e+00 1.335180314853e+00 1.328697241409e+00 1.322216337618e+00 1.315750608556e+00 1.309315224687e+00 1.302923190830e+00 1.296590039959e+00 1.290328746293e+00 1.284154996435e+00 1.278081715400e+00 1.272124538584e+00 1.266296334926e+00 1.260612488654e+00 1.255085816782e+00 1.249731257367e+00 1.244561589291e+00 1.239591113801e+00 1.234832593064e+00 1.230299504004e+00 1.226004618437e+00 1.221960402744e+00 1.218179666364e+00 1.214673677732e+00 1.211455309384e+00 1.208534440055e+00 1.205924023300e+00 1.203632348014e+00 1.201672452956e+00 1.200050823664e+00 1.198780567476e+00 1.197866135403e+00 1.197320663536e+00 1.197146333113e+00 1.197356306296e+00 1.197950378787e+00 1.198941774130e+00 1.200327635145e+00 1.202121084062e+00 1.204316300557e+00 1.206926143866e+00 1.209941528097e+00 1.213374866037e+00 1.217213503413e+00 1.221469198482e+00 1.226125431129e+00 1.231193077350e+00 1.236651469929e+00 1.242510364218e+00 1.248744695042e+00 1.255362860214e+00 1.262335192851e+00 1.269668512462e+00 1.277328412242e+00 1.285319945142e+00 1.293603910853e+00 1.302183457182e+00 1.311014639952e+00 1.320098629709e+00 1.329386907972e+00 1.338878677518e+00 1.348521148479e+00 1.358311659138e+00 1.368193593200e+00 1.378162629388e+00 1.388158914675e+00 1.398176777273e+00 1.408153857472e+00 1.418083542270e+00 1.427901823587e+00 1.437601646097e+00 1.447118319881e+00 1.456444918293e+00 1.465517116718e+00 1.474328736454e+00 1.482816911601e+00 1.490976849711e+00 1.498748243552e+00 1.506128310992e+00 1.513060366582e+00 1.519544212590e+00 1.525527766501e+00 1.531013902670e+00 1.535955995860e+00 1.540360358404e+00 1.544186507410e+00 1.547444404885e+00 1.550100188198e+00 1.552167499545e+00 1.553619338136e+00 1.554472862053e+00 1.554707942017e+00 1.554345015899e+00 1.553370893095e+00 1.551809060620e+00 1.549652898392e+00 1.546928337711e+00 1.543634854073e+00 1.539800283855e+00 1.535429672664e+00 1.530552209658e+00 1.525177919981e+00 1.519336789861e+00 1.513043179599e+00 1.506327321924e+00 1.499207232505e+00 1.491712879377e+00 1.483865182154e+00 1.475693490519e+00 1.467220939756e+00 1.458475722779e+00 1.449482588392e+00 1.440268265280e+00 1.430858614518e+00 1.421278564005e+00 1.411554346475e+00 1.401709050883e+00 1.391768963532e+00 1.381755137328e+00 1.371693457592e+00 1.361602947329e+00 1.351508731471e+00 1.341427897956e+00 1.331384546724e+00 1.321393913765e+00 1.311478885865e+00 1.301653007337e+00 1.291937813249e+00 1.282345346499e+00 1.272895699397e+00 1.263599632930e+00 1.254475751711e+00 1.245533766177e+00 1.236790783733e+00 1.228255702271e+00 1.219944148828e+00 1.211864443962e+00 1.204030769686e+00 1.196451093917e+00 1.189138199892e+00 1.182099910861e+00 1.175347661438e+00 1.168889316387e+00 1.162735009100e+00 1.156892805947e+00 1.151371577402e+00 1.146179721693e+00 1.141324869537e+00 1.136815847949e+00 1.132659049951e+00 1.128863791578e+00 1.125435203235e+00 1.122383110142e+00 1.119711322728e+00 1.117430152660e+00 1.115541996708e+00 1.114057586991e+00 1.112977777820e+00 1.112313621072e+00 1.112064284174e+00 1.112241055873e+00 1.112841330549e+00 1.113876519091e+00 1.115341962603e+00 1.117248877995e+00 1.119590217099e+00 1.122376695815e+00 1.125598548838e+00 1.129265678859e+00 1.133365280023e+00 1.137906131894e+00 1.142872083724e+00 1.148270499497e+00 1.154081616636e+00 1.160311124805e+00 1.166935437945e+00 1.173958360723e+00 1.181352342151e+00 1.189119149851e+00 1.197227207218e+00 1.205676157497e+00 1.214430424428e+00 1.223487506231e+00 1.232807941604e+00 1.242387129009e+00 1.252181925036e+00 1.262185737810e+00 1.272352032121e+00 1.282672398339e+00 1.293097286893e+00 1.303616706843e+00 1.314178559774e+00 1.324771576238e+00 1.335341664150e+00 1.345876647917e+00 1.356321087419e+00 1.366662345041e+00 1.376844366732e+00 1.386854567762e+00 1.396637095893e+00 1.406179998841e+00 1.415428510134e+00 1.424371941350e+00 1.432957542935e+00 1.441176553401e+00 1.448979189683e+00 1.456359284569e+00 1.463270953705e+00 1.469711262139e+00 1.475639097748e+00 1.481055328097e+00 1.485924382787e+00 1.490251392449e+00 1.494006945307e+00 1.497200739822e+00 1.499809933197e+00 1.501848885625e+00 1.503301459357e+00 1.504186481712e+00 1.504494281804e+00 1.504247553445e+00 1.503442420453e+00 1.502104654971e+00 1.500235572503e+00 1.497863421839e+00 1.494994151087e+00 1.491657871773e+00 1.487864526181e+00 1.483645433601e+00 1.479013827638e+00 1.474001565611e+00 1.468624437231e+00 1.462914185711e+00 1.456888424088e+00 1.450578177649e+00 1.444002183846e+00 1.437190219594e+00 1.430161506990e+00 1.422944135187e+00 1.415557248229e+00 1.408026909072e+00 1.400371708705e+00 1.392615449008e+00 1.384775784506e+00 1.376874121072e+00 1.368926883282e+00 1.360953037513e+00 1.352967568874e+00 1.344987040306e+00 1.337024862998e+00 1.329095298130e+00 1.321210112958e+00 1.313381419522e+00 1.305619324275e+00 1.297933979245e+00 1.290333855238e+00 1.282827356505e+00 1.275421375042e+00 1.268122790823e+00 1.260936996369e+00 1.253869572155e+00 1.246924505270e+00 1.240106294733e+00 1.233417624571e+00 1.226862117583e+00 1.220441260422e+00 1.214157987802e+00 1.208012694238e+00 1.202007794687e+00 1.196142693566e+00 1.190419433203e+00 1.184836524901e+00 1.179395763954e+00 1.174094859277e+00 1.168935463679e+00 1.163914567458e+00 1.159033765514e+00 1.154289406024e+00 1.149683092063e+00 1.145210598834e+00 1.140873586904e+00 1.136667320436e+00 1.132593551885e+00 1.128647089333e+00 1.124829798512e+00 1.121136079742e+00 1.117567922273e+00 1.114119360774e+00 1.110792508901e+00 1.107581072038e+00 1.104487281487e+00 1.101504544491e+00 1.098635197171e+00 1.095872375105e+00 1.093218501792e+00 1.090666463561e+00 1.088218750535e+00 1.085868018764e+00 1.083616802132e+00 1.081457542566e+00 1.079392793775e+00 1.077414797560e+00 1.075526103378e+00 1.073718765374e+00 1.071995305346e+00 1.070347601354e+00 1.068778125501e+00 1.067278591038e+00 1.065851400314e+00 1.064488113326e+00 1.063191045114e+00 1.061951614794e+00 1.060772035504e+00 1.059643599191e+00 1.058568405872e+00 1.057537635856e+00 1.056553268597e+00 1.055606390603e+00 1.054698857475e+00 1.053821682544e+00 1.052976598847e+00 1.052154570450e+00 1.051357214158e+00 1.050575472490e+00 1.049810857937e+00 1.049054323599e+00 1.048307295788e+00 1.047560775391e+00 1.046816127666e+00 1.046064444368e+00 1.045307062749e+00 1.044535215346e+00 1.043750253507e+00 1.042943608426e+00 1.042116698061e+00 1.041261219445e+00 1.040378721637e+00 1.039461245543e+00 1.038510549566e+00 1.037519109129e+00 1.036488985939e+00 1.035413195112e+00 1.034294213483e+00 1.033125717674e+00 1.031910731606e+00 1.030643734091e+00 1.029328450547e+00 1.027960323798e+00 1.026543959883e+00 1.025075950695e+00 1.023561988673e+00 1.022000024757e+00 1.020397071470e+00 1.018752674550e+00 1.017075428352e+00 1.015366734465e+00 1.013637057522e+00 1.011889939678e+00 1.010138031350e+00 1.008387342101e+00 1.006653178516e+00 1.004945158185e+00 1.003286387314e+00 1.001718306743e+00 1.000000000000e+00 1.000000000000e+00 1.000000000000e+00 1.000000000000e+00 
1.000000000000e+00 1.000079804576e+00 1.000328280998e+00 1.000736830705e+00 1.001316190387e+00 1.002056860108e+00 1.002969882621e+00 1.004045976647e+00 1.005296397446e+00 1.006712032785e+00 1.008304314290e+00 1.010064250254e+00 1.012003401374e+00 1.014112834232e+00 1.016404177668e+00 1.018868481089e+00 1.021517367955e+00 1.024341782657e+00 1.027353257666e+00 1.030542532477e+00 1.033920951443e+00 1.037478938410e+00 1.041227542804e+00 1.045156753596e+00 1.049277211513e+00 1.053578345899e+00 1.058070271148e+00 1.062741730084e+00 1.067602193063e+00 1.072639591660e+00 1.077862639215e+00 1.083258338847e+00 1.088834544483e+00 1.094577227418e+00 1.100493296998e+00 1.106567610088e+00 1.112806070585e+00 1.119192366145e+00 1.125731365574e+00 1.132405566998e+00 1.139218811929e+00 1.146152428712e+00 1.153209281681e+00 1.160369593177e+00 1.167635345706e+00 1.174985765025e+00 1.182422092647e+00 1.189922711506e+00 1.197488305527e+00 1.205096608288e+00 1.212747965786e+00 1.220419687390e+00 1.228112027519e+00 1.235802117165e+00 1.243490379915e+00 1.251154021635e+00 1.258793896189e+00 1.266387530537e+00 1.273936455646e+00 1.281418744461e+00 1.288836823695e+00 1.296169502961e+00 1.303420283284e+00 1.310568857222e+00 1.317619929777e+00 1.324554171621e+00 1.331377567423e+00 1.338071807344e+00 1.344644176300e+00 1.351077372790e+00 1.357379950032e+00 1.363535555978e+00 1.369553933364e+00 1.375419580515e+00 1.381143311941e+00 1.386710346424e+00 1.392132422716e+00 1.397395329481e+00 1.402511561915e+00 1.407467317516e+00 1.412275668996e+00 1.416923060673e+00 1.421422960952e+00 1.425761906375e+00 1.429953583346e+00 1.433984480526e+00 1.437868334487e+00 1.441591466067e+00 1.445167508531e+00 1.448582519510e+00 1.451849893248e+00 1.454955356571e+00 1.457911949258e+00 1.460705029737e+00 1.463347189921e+00 1.465823413604e+00 1.468145774638e+00 1.470298907834e+00 1.472294322620e+00 1.474116362111e+00 1.475775948842e+00 1.477257222065e+00 1.478570518297e+00 1.479699889235e+00 1.480655108230e+00 1.481420280916e+00 1.482004659618e+00 1.482392565189e+00 1.482592784900e+00 1.482590028317e+00 1.482392710461e+00 1.481986181336e+00 1.481378617800e+00 1.480556212537e+00 1.479526990664e+00 1.478278188539e+00 1.476817784841e+00 1.475134262510e+00 1.473235660499e+00 1.471111899781e+00 1.468771182414e+00 1.466205041257e+00 1.463421935501e+00 1.460415159393e+00 1.457193510136e+00 1.453752163220e+00 1.450100318322e+00 1.446235118178e+00 1.442166210623e+00 1.437892754908e+00 1.433424872722e+00 1.428763750988e+00 1.423919990899e+00 1.418896780182e+00 1.413705186229e+00 1.408350334142e+00 1.402843727363e+00 1.397192331091e+00 1.391408040739e+00 1.385499534161e+00 1.379479044250e+00 1.373356808319e+00 1.367145335675e+00 1.360856248928e+00 1.354502270088e+00 1.348096216863e+00 1.341650961338e+00 1.335180314853e+00 1.328697241409e+00 1.322216337618e+00 1.315750608556e+00 1.309315224687e+00 1.302923190830e+00 1.296590039959e+00 1.290328746293e+00 1.284154996435e+00 1.278081715400e+00 1.272124538584e+00 1.266296334926e+00 1.260612488654e+00 1.255085816782e+00 1.249731257367e+00 1.244561589291e+00 1.239591113801e+00 1.234832593064e+00 1.230299504004e+00 1.226004618437e+00 1.221960402744e+00 1.218179666364e+00 1.214673677732e+00 1.211455309384e+00 1.208534440055e+00 1.205924023300e+00 1.203632348014e+00 1.201672452956e+00 1.200050823664e+00 1.198780567476e+00 1.197866135403e+00 1.197320663536e+00 1.197146333113e+00 1.197356306296e+00 1.197950378787e+00 1.198941774130e+00 1.200327635145e+00 1.202121084062e+00 1.204316300557e+00 1.206926143866e+00 1.209941528097e+00 1.213374866037e+00 1.217213503413e+00 1.221469198482e+00 1.226125431129e+00 1.231193077350e+00 1.236651469929e+00 1.242510364218e+00 1.248744695042e+00 1.255362860214e+00 1.262335192851e+00 1.269668512462e+00 1.277328412242e+00 1.285319945142e+00 1.293603910853e+00 1.302183457182e+00 1.311014639952e+00 1.320098629709e+00 1.329386907972e+00 1.338878677518e+00 1.348521148479e+00 1.358311659138e+00 1.368193593200e+00 1.378162629388e+00 1.388158914675e+00 1.398176777273e+00 1.408153857472e+00 1.418083542270e+00 1.427901823587e+00 1.437601646097e+00 1.447118319881e+00 1.456444918293e+00 1.465517116718e+00 1.474328736454e+00 1.482816911601e+00 1.490976849711e+00 1.498748243552e+00 1.506128310992e+00 1.513060366582e+00 1.519544212590e+00 1.525527766501e+00 1.531013902670e+00 1.535955995860e+00 1.540360358404e+00 1.544186507410e+00 1.547444404885e+00 1.550100188198e+00 1.552167499545e+00 1.553619338136e+00 1.554472862053e+00 1.554707942017e+00 1.554345015899e+00 1.553370893095e+00 1.551809060620e+00 1.549652898392e+00 1.546928337711e+00 1.543634854073e+00 1.539800283855e+00 1.535429672664e+00 1.530552209658e+00 1.525177919981e+00 1.519336789861e+00 1.513043179599e+00 1.506327321924e+00 1.499207232505e+00 1.491712879377e+00 1.483865182154e+00 1.475693490519e+00 1.467220939756e+00 1.458475722779e+00 1.449482588392e+00 1.440268265280e+00 1.430858614518e+00 1.421278564005e+00 1.411554346475e+00 1.401709050883e+00 1.391768963532e+00 1.381755137328e+00 1.371693457592e+00 1.361602947329e+00 1.351508731471e+00 1.341427897956e+00 1.331384546724e+00 1.321393913765e+00 1.311478885865e+00 1.301653007337e+00 1.291937813249e+00 1.282345346499e+00 1.272895699397e+00 1.263599632930e+00 1.254475751711e+00 1.245533766177e+00 1.236790783733e+00 1.228255702271e+00 1.219944148828e+00 1.211864443962e+00 1.204030769686e+00 1.196451093917e+00 1.189138199892e+00 1.182099910861e+00 1.175347661438e+00 1.168889316387e+00 1.162735009100e+00 1.156892805947e+00 1.151371577402e+00 1.146179721693e+00 1.141324869537e+00 1.136815847949e+00 1.132659049951e+00 1.128863791578e+00 1.125435203235e+00 1.122383110142e+00 1.119711322728e+00 1.117430152660e+00 1.115541996708e+00 1.114057586991e+00 1.112977777820e+00 1.112313621072e+00 1.112064284174e+00 1.112241055873e+00 1.112841330549e+00 1.113876519091e+00 1.115341962603e+00 1.117248877995e+00 1.119590217099e+00 1.122376695815e+00 1.125598548838e+00 1.129265678859e+00 1.133365280023e+00 1.137906131894e+00 1.142872083724e+00 1.148270499497e+00 1.154081616636e+00 1.160311124805e+00 1.166935437945e+00 1.173958360723e+00 1.181352342151e+00 1.189119149851e+00 1.197227207218e+00 1.205676157497e+00 1.214430424428e+00 1.223487506231e+00 1.232807941604e+00 1.242387129009e+00 1.252181925036e+00 1.262185737810e+00 1.272352032121e+00 1.282672398339e+00 1.293097286893e+00 1.303616706843e+00 1.314178559774e+00 1.324771576238e+00 1.335341664150e+00 1.345876647917e+00 1.356321087419e+00 1.366662345041e+00 1.376844366732e+00 1.386854567762e+00 1.396637095893e+00 1.406179998841e+00 1.415428510134e+00 1.424371941350e+00 1.432957542935e+00 1.441176553401e+00 1.448979189683e+00 1.456359284569e+00 1.463270953705e+00 1.469711262139e+00 1.475639097748e+00 1.481055328097e+00 1.485924382787e+00 1.490251392449e+00 1.494006945307e+00 1.497200739822e+00 1.499809933197e+00 1.501848885625e+00 1.503301459357e+00 1.504186481712e+00 1.504494281804e+00 1.504247553445e+00 1.503442420453e+00 1.502104654971e+00 1.500235572503e+00 1.497863421839e+00 1.494994151087e+00 1.491657871773e+00 1.487864526181e+00 1.483645433601e+00 1.479013827638e+00 1.474001565611e+00 1.468624437231e+00 1.462914185711e+00 1.456888424088e+00 1.450578177649e+00 1.444002183846e+00 1.437190219594e+00 1.430161506990e+00 1.422944135187e+00 1.415557248229e+00 1.408026909072e+00 1.400371708705e+00 1.392615449008e+00 1.384775784506e+00 1.376874121072e+00 1.368926883282e+00 1.360953037513e+00 1.352967568874e+00 1.344987040306e+00 1.337024862998e+00 1.329095298130e+00 1.321210112958e+00 1.313381419522e+00 1.305619324275e+00 1.297933979245e+00 1.290333855238e+00 1.282827356505e+00 1.275421375042e+00 1.268122790823e+00 1.260936996369e+00 1.253869572155e+00 1.246924505270e+00 1.240106294733e+00 1.233417624571e+00 1.226862117583e+00 1.220441260422e+00 1.214157987802e+00 1.208012694238e+00 1.202007794687e+00 1.196142693566e+00 1.190419433203e+00 1.184836524901e+00 1.179395763954e+00 1.174094859277e+00 1.168935463679e+00 1.163914567458e+00 1.159033765514e+00 1.154289406024e+00 1.149683092063e+00 1.145210598834e+00 1.140873586904e+00 1.136667320436e+00 1.132593551885e+00 1.128647089333e+00 1.124829798512e+00 1.121136079742e+00 1.117567922273e+00 1.114119360774e+00 1.110792508901e+00 1.107581072038e+00 1.104487281487e+00 1.101504544491e+00 1.098635197171e+00 1.095872375105e+00 1.093218501792e+00 1.090666463561e+00 1.088218750535e+00 1.085868018764e+00 1.083616802132e+00 1.081457542566e+00 1.079392793775e+00 1.077414797560e+00 1.075526103378e+00 1.073718765374e+00 1.071995305346e+00 1.070347601354e+00 1.068778125501e+00 1.067278591038e+00 1.065851400314e+00 1.064488113326e+00 1.063191045114e+00 1.061951614794e+00 1.060772035504e+00 1.059643599191e+00 1.058568405872e+00 1.057537635856e+00 1.056553268597e+00 1.055606390603e+00 1.054698857475e+00 1.053821682544e+00 1.052976598847e+00 1.052154570450e+00 1.051357214158e+00 1.050575472490e+00 1.049810857937e+00 1.049054323599e+00 1.048307295788e+00 1.047560775391e+00 1.046816127666e+00 1.046064444368e+00 1.045307062749e+00 1.044535215346e+00 1.043750253507e+00 1.042943608426e+00 1.042116698061e+00 1.041261219445e+00 1.040378721637e+00 1.039461245543e+00 1.038510549566e+00 1.037519109129e+00 1.036488985939e+00 1.035413195112e+00 1.034294213483e+00 1.033125717674e+00 1.031910731606e+00 1.030643734091e+00 1.029328450547e+00 1.027960323798e+00 1.026543959883e+00 1.025075950695e+00 1.023561988673e+00 1.022000024757e+00 1.020397071470e+00 1.018752674550e+00 1.017075428352e+00 1.015366734465e+00 1.013637057522e+00 1.011889939678e+00 1.010138031350e+00 1.008387342101e+00 1.006653178516e+00 1.004945158185e+00 1.003286387314e+00 1.001718306743e+00 1.000000000000e+00 1.000000000000e+00 1.000000000000e+00 1.000000000000e+00 
1.000000000000e+00 1.000083570718e+00 1.000326770404e+00 1.000740046104e+00 1.001313916225e+00 1.002059305967e+00 1.002966818256e+00 1.004047595185e+00 1.005292443271e+00 1.006712714993e+00 1.008299374377e+00 1.010063936530e+00 1.011997462334e+00 1.014111572070e+00 1.016397352601e+00 1.018866460929e+00 1.021509927452e+00 1.024339365776e+00 1.027345655460e+00 1.030540274781e+00 1.033913846431e+00 1.037477610562e+00 1.041221817039e+00 1.045157356529e+00 1.049273982862e+00 1.053582120176e+00 1.058070898913e+00 1.062750157323e+00 1.067608274752e+00 1.072654386160e+00 1.077875996591e+00 1.083281427650e+00 1.088857197265e+00 1.094610717306e+00 1.100527422932e+00 1.106613740597e+00 1.112853951366e+00 1.119253448510e+00 1.125795319073e+00 1.132483910086e+00 1.139301112426e+00 1.146250254345e+00 1.153312071225e+00 1.160488944683e+00 1.167760541128e+00 1.175128414176e+00 1.182571293984e+00 1.190090070092e+00 1.197662712437e+00 1.205289651103e+00 1.212948308765e+00 1.220638893293e+00 1.228338520257e+00 1.236047433973e+00 1.243742697778e+00 1.251424858930e+00 1.259071183817e+00 1.266682782133e+00 1.274237364124e+00 1.281736839638e+00 1.289159575028e+00 1.296508482878e+00 1.303762757402e+00 1.310926470680e+00 1.317979767337e+00 1.324927982756e+00 1.331752280555e+00 1.338459307174e+00 1.345031259225e+00 1.351476086804e+00 1.357776982210e+00 1.363943141057e+00 1.369958669223e+00 1.375833906103e+00 1.381553753055e+00 1.387129556818e+00 1.392546870262e+00 1.397817885979e+00 1.402928649000e+00 1.407892020809e+00 1.412694373910e+00 1.417349055081e+00 1.421842603349e+00 1.426188668270e+00 1.430373805943e+00 1.434411793650e+00 1.438289072975e+00 1.442019386411e+00 1.445588952289e+00 1.449011332235e+00 1.452272439172e+00 1.455385527111e+00 1.458336150667e+00 1.461137150910e+00 1.463773702237e+00 1.466258150311e+00 1.468575299303e+00 1.470736940768e+00 1.472727550677e+00 1.474558331906e+00 1.476213505630e+00 1.477703675417e+00 1.479012910909e+00 1.480151228822e+00 1.481102677859e+00 1.481876721737e+00 1.482457542438e+00 1.482854103237e+00 1.483050892808e+00 1.483056445207e+00 1.482855757396e+00 1.482457048002e+00 1.481846053978e+00 1.481030787442e+00 1.479997931723e+00 1.478755395594e+00 1.477291014658e+00 1.475612702856e+00 1.473709647191e+00 1.471589873718e+00 1.469244105340e+00 1.466680580810e+00 1.463891722108e+00 1.460886070083e+00 1.457657881563e+00 1.454216073858e+00 1.450556842192e+00 1.446689536747e+00 1.442612358851e+00 1.438335128177e+00 1.433858081878e+00 1.429191525294e+00 1.424337722515e+00 1.419307460807e+00 1.414104984533e+00 1.408741540879e+00 1.403223272211e+00 1.397561847949e+00 1.391765193898e+00 1.385845351640e+00 1.379811887723e+00 1.373677157211e+00 1.367452201278e+00 1.361149625152e+00 1.354781760077e+00 1.348361397395e+00 1.341901960353e+00 1.335416365263e+00 1.328918920454e+00 1.322422612130e+00 1.315942422086e+00 1.309491359962e+00 1.303084868228e+00 1.296735943983e+00 1.290460279188e+00 1.284270834021e+00 1.278183342330e+00 1.272210714957e+00 1.266368524821e+00 1.260669632604e+00 1.255129252697e+00 1.249760205335e+00 1.244577153730e+00 1.239592896209e+00 1.234821356179e+00 1.230275335071e+00 1.225967830347e+00 1.221911675046e+00 1.218118754905e+00 1.214601962879e+00 1.211371884801e+00 1.208441497175e+00 1.205819891901e+00 1.203520142593e+00 1.201549643162e+00 1.199921561666e+00 1.198641375946e+00 1.197722325283e+00 1.197167742315e+00 1.196990907133e+00 1.197192806854e+00 1.197786776507e+00 1.198771279782e+00 1.200159634981e+00 1.201947494402e+00 1.204148009677e+00 1.206753719002e+00 1.209777433219e+00 1.213208271684e+00 1.217058504778e+00 1.221313529680e+00 1.225984853435e+00 1.231053857733e+00 1.236531047225e+00 1.242393517418e+00 1.248650526002e+00 1.255274649847e+00 1.262273663204e+00 1.269615447951e+00 1.277306082367e+00 1.285308652220e+00 1.293627368421e+00 1.302220514031e+00 1.311090319814e+00 1.320190372179e+00 1.329520884067e+00 1.339030979496e+00 1.348718905194e+00 1.358529696739e+00 1.368459786036e+00 1.378450639918e+00 1.388497132178e+00 1.398537825714e+00 1.408566397776e+00 1.418519309082e+00 1.428389499586e+00 1.438112250329e+00 1.447680306717e+00 1.457028789252e+00 1.466150854095e+00 1.474982545522e+00 1.483518071356e+00 1.491695511504e+00 1.499510770167e+00 1.506905060071e+00 1.513876595188e+00 1.520370758631e+00 1.526388619532e+00 1.531880663658e+00 1.536851256126e+00 1.541256767998e+00 1.545105162088e+00 1.548359286985e+00 1.551030835643e+00 1.553089502241e+00 1.554550652991e+00 1.555390957772e+00 1.555629229826e+00 1.555249088056e+00 1.554272533327e+00 1.552689958252e+00 1.550526088675e+00 1.547777678517e+00 1.544471647485e+00 1.540610612484e+00 1.536223139000e+00 1.531317139408e+00 1.525922264285e+00 1.520051097357e+00 1.513733817087e+00 1.506986996411e+00 1.499840790782e+00 1.492315101053e+00 1.484439601585e+00 1.476236645375e+00 1.467735141273e+00 1.458959474190e+00 1.449936522109e+00 1.440692749165e+00 1.431253400573e+00 1.421644897292e+00 1.411891373293e+00 1.402019297164e+00 1.392050665980e+00 1.382011779549e+00 1.371922621352e+00 1.361808833633e+00 1.351688447570e+00 1.341586173436e+00 1.331518119631e+00 1.321507849001e+00 1.311569696019e+00 1.301725911204e+00 1.291989226613e+00 1.282380469161e+00 1.272910981298e+00 1.263600102144e+00 1.254458010801e+00 1.245502536522e+00 1.236742932059e+00 1.228195524050e+00 1.219868877652e+00 1.211777846586e+00 1.203930539999e+00 1.196340382837e+00 1.189015245934e+00 1.181967176756e+00 1.175204005999e+00 1.168736455266e+00 1.162572489189e+00 1.156721548949e+00 1.151191879176e+00 1.145991673777e+00 1.141129571901e+00 1.136612535148e+00 1.132449676856e+00 1.128646717280e+00 1.125213285509e+00 1.122153821815e+00 1.119478471439e+00 1.117190321773e+00 1.115299991791e+00 1.113809107333e+00 1.112728679341e+00 1.112058735847e+00 1.111810577879e+00 1.111982502586e+00 1.112586000436e+00 1.113617456950e+00 1.115088322300e+00 1.116992758614e+00 1.119341871599e+00 1.122127267770e+00 1.125359392822e+00 1.129026965016e+00 1.133139451544e+00 1.137682361684e+00 1.142663876288e+00 1.148066004545e+00 1.153895360434e+00 1.160130210509e+00 1.166775364595e+00 1.173805169537e+00 1.181222449687e+00 1.188997533314e+00 1.197131141973e+00 1.205589572353e+00 1.214371393078e+00 1.223438945043e+00 1.232788660434e+00 1.242379088527e+00 1.252204605711e+00 1.262220220428e+00 1.272418395739e+00 1.282750935286e+00 1.293208592464e+00 1.303740387536e+00 1.314335630797e+00 1.324941067525e+00 1.335544897877e+00 1.346092189504e+00 1.356570435488e+00 1.366923712648e+00 1.377139281969e+00 1.387161002371e+00 1.396976447232e+00 1.406530107526e+00 1.415810474484e+00 1.424763581607e+00 1.433379488540e+00 1.441606717771e+00 1.449437569465e+00 1.456824005282e+00 1.463761228938e+00 1.470205556337e+00 1.476155712412e+00 1.481573203596e+00 1.486460807961e+00 1.490785933069e+00 1.494555812737e+00 1.497744290344e+00 1.500363279885e+00 1.502393360811e+00 1.503851109446e+00 1.504723822958e+00 1.505032372065e+00 1.504770280289e+00 1.503961864978e+00 1.502606106456e+00 1.500730100776e+00 1.498337768048e+00 1.495458397329e+00 1.492100248388e+00 1.488294162951e+00 1.484052058361e+00 1.479405656315e+00 1.474369798841e+00 1.468976415837e+00 1.463242526919e+00 1.457199632837e+00 1.450866204030e+00 1.444272737933e+00 1.437438478324e+00 1.430392430002e+00 1.423154003623e+00 1.415750320566e+00 1.408200437012e+00 1.400529304616e+00 1.392755195718e+00 1.384900709449e+00 1.376982997574e+00 1.369022220843e+00 1.361034162008e+00 1.353036543825e+00 1.345043611993e+00 1.337070724531e+00 1.329130492242e+00 1.321236039891e+00 1.313398304428e+00 1.305628352229e+00 1.297935454859e+00 1.290328824451e+00 1.282816112162e+00 1.275404896589e+00 1.268101280093e+00 1.260911434054e+00 1.253840001751e+00 1.246891970300e+00 1.240070624625e+00 1.233379980170e+00 1.226822069582e+00 1.220400133768e+00 1.214115060179e+00 1.207969493457e+00 1.201963280737e+00 1.196098627850e+00 1.190374442057e+00 1.184792626229e+00 1.179351242287e+00 1.174052004552e+00 1.168892217316e+00 1.163873500164e+00 1.158992480198e+00 1.154250756808e+00 1.149644352896e+00 1.145174904573e+00 1.140837896148e+00 1.136635041557e+00 1.132561344938e+00 1.128618625242e+00 1.124801457987e+00 1.121111782307e+00 1.117543790174e+00 1.114099545882e+00 1.110772896910e+00 1.107566029264e+00 1.104472479457e+00 1.101494544958e+00 1.098625479877e+00 1.095867677620e+00 1.093214134071e+00 1.090667319136e+00 1.088219990889e+00 1.085874673637e+00 1.083623904931e+00 1.081470239835e+00 1.079406010174e+00 1.077433777566e+00 1.075545681076e+00 1.073744264967e+00 1.072021487313e+00 1.070379852172e+00 1.068811147816e+00 1.067317816946e+00 1.065891489233e+00 1.064534527130e+00 1.063238413477e+00 1.062005414340e+00 1.060826878586e+00 1.059704962929e+00 1.058630896712e+00 1.057606717902e+00 1.056623552833e+00 1.055683315278e+00 1.054777047612e+00 1.053906538316e+00 1.053062767872e+00 1.052247403150e+00 1.051451388321e+00 1.050676277596e+00 1.049913008496e+00 1.049163037381e+00 1.048417329474e+00 1.047677264647e+00 1.046933875606e+00 1.046188494493e+00 1.045432267570e+00 1.044666516442e+00 1.043882554323e+00 1.043081739138e+00 1.042255613013e+00 1.041405628162e+00 1.040523627574e+00 1.039611228514e+00 1.038660658416e+00 1.037673785001e+00 1.036643317210e+00 1.035571475336e+00 1.034451562385e+00 1.033286272273e+00 1.032069632335e+00 1.030804952443e+00 1.029487134531e+00 1.028120270408e+00 1.026700309171e+00 1.025232316406e+00 1.023713485261e+00 1.022150074549e+00 1.020540744119e+00 1.018893193967e+00 1.017207799437e+00 1.015493977709e+00 1.013754093446e+00 1.011999583316e+00 1.010235100730e+00 1.008474448789e+00 1.006725024076e+00 1.005004168658e+00 1.003327211256e+00 1.001743673223e+00 1.000000000000e+00 1.000000000000e+00 1.000000000000e+00 1.000000000000e+00 