# vtk DataFile Version 3.0
Vortex Output
ASCII
DATASET STRUCTURED_POINTS
FIELD FieldData 2
TIME 1 1 double
5.000000
CYCLE 1 1 int
2000
DIMENSIONS 514 130 1
ORIGIN 0 0 0
SPACING 1 1 1
POINT_DATA 66820
SCALARS u double 1
LOOKUP_TABLE default
1.000081880136e+00 1.000081880136e+00 1.000328913669e+00 1.000740474796e+00 1.001318385116e+00 1.002062114134e+00 1.002973731816e+00 1.004052915761e+00 1.005301955067e+00 1.006720695416e+00 1.008311610361e+00 1.010074661834e+00 1.012012460368e+00 1.014125019388e+00 1.016415026171e+00 1.018882468201e+00 1.021530036808e+00 1.024357603792e+00 1.027367779914e+00 1.030560219978e+00 1.033937358556e+00 1.037498521778e+00 1.041245862918e+00 1.045178259266e+00 1.049297470417e+00 1.053601798827e+00 1.058092493835e+00 1.062767154793e+00 1.067626404023e+00 1.072667011753e+00 1.077888861302e+00 1.083287775453e+00 1.088862797183e+00 1.094608697479e+00 1.100523594845e+00 1.106601124929e+00 1.112838421821e+00 1.119227930096e+00 1.125765770594e+00 1.132443175565e+00 1.139255261124e+00 1.146192066101e+00 1.153247752727e+00 1.160411229460e+00 1.167675800698e+00 1.175029353335e+00 1.182464475428e+00 1.189968185528e+00 1.197532539341e+00 1.205143880054e+00 1.212793951183e+00 1.220468645295e+00 1.228159640494e+00 1.235852624227e+00 1.243539470311e+00 1.251205914083e+00 1.258844286486e+00 1.266440616824e+00 1.273987940224e+00 1.281472804767e+00 1.288889168568e+00 1.296224289171e+00 1.303473226324e+00 1.310624093380e+00 1.317673181408e+00 1.324609554900e+00 1.331430811897e+00 1.338127009652e+00 1.344697073670e+00 1.351132043153e+00 1.357432139000e+00 1.363589323893e+00 1.369605035156e+00 1.375472060369e+00 1.381192935313e+00 1.386761143097e+00 1.392180170145e+00 1.397444045133e+00 1.402557036990e+00 1.407513559562e+00 1.412318484961e+00 1.416966450877e+00 1.421462750316e+00 1.425802090938e+00 1.429990008423e+00 1.434021141021e+00 1.437901098653e+00 1.441624330956e+00 1.445196367927e+00 1.448611375940e+00 1.451874668576e+00 1.454980062070e+00 1.457932537259e+00 1.460725523357e+00 1.463363574064e+00 1.465839726028e+00 1.468158034518e+00 1.470311169941e+00 1.472302641556e+00 1.474124811490e+00 1.475780619198e+00 1.477262207021e+00 1.478571944062e+00 1.479701869871e+00 1.480653804523e+00 1.481419826983e+00 1.482001248840e+00 1.482390350512e+00 1.482587989392e+00 1.482586821687e+00 1.482387341900e+00 1.481982834866e+00 1.481373564303e+00 1.480553646703e+00 1.479523199618e+00 1.478277373450e+00 1.476816243223e+00 1.475136197458e+00 1.473237373623e+00 1.471117591269e+00 1.468777151451e+00 1.466215480210e+00 1.463433134563e+00 1.460431298299e+00 1.457210863674e+00 1.453774893958e+00 1.450124679572e+00 1.446265251262e+00 1.442198341813e+00 1.437931000809e+00 1.433465427656e+00 1.428810704090e+00 1.423969500411e+00 1.418952905816e+00 1.413764046870e+00 1.408415958980e+00 1.402912193543e+00 1.397267637036e+00 1.391486220370e+00 1.385584555712e+00 1.379566897804e+00 1.373451433247e+00 1.367242678406e+00 1.360960221963e+00 1.354608777090e+00 1.348209145985e+00 1.341766174974e+00 1.335301679728e+00 1.328820580617e+00 1.322345499643e+00 1.315881379512e+00 1.309451438116e+00 1.303060598410e+00 1.296732463573e+00 1.290471905844e+00 1.284302705285e+00 1.278229664339e+00 1.272276535342e+00 1.266448043763e+00 1.260767714211e+00 1.255240199216e+00 1.249888600361e+00 1.244717511118e+00 1.239749418855e+00 1.234988879704e+00 1.230457578512e+00 1.226160060971e+00 1.222117022152e+00 1.218333026060e+00 1.214827589331e+00 1.211605320784e+00 1.208684365408e+00 1.206069396049e+00 1.203776984263e+00 1.201811872664e+00 1.200188844060e+00 1.198912696020e+00 1.197996189470e+00 1.197444139069e+00 1.197267046171e+00 1.197469740789e+00 1.198060345650e+00 1.199043745223e+00 1.200425415599e+00 1.202210135736e+00 1.204400422091e+00 1.207000789058e+00 1.210010488467e+00 1.213433589563e+00 1.217265774204e+00 1.221510461401e+00 1.226159463035e+00 1.231215323200e+00 1.236665700001e+00 1.242512027302e+00 1.248737556048e+00 1.255342376017e+00 1.262305124758e+00 1.269624330175e+00 1.277273875776e+00 1.285250542206e+00 1.293523402991e+00 1.302087355669e+00 1.310906711163e+00 1.319974414336e+00 1.329250180940e+00 1.338725015007e+00 1.348354338036e+00 1.358127318617e+00 1.367995527116e+00 1.377946503464e+00 1.387928554929e+00 1.397927903378e+00 1.407890321557e+00 1.417801123804e+00 1.427604405374e+00 1.437285072857e+00 1.446786509478e+00 1.456093785610e+00 1.465150618715e+00 1.473942862375e+00 1.482415661022e+00 1.490556289523e+00 1.498312418744e+00 1.505673368268e+00 1.512590398193e+00 1.519055445863e+00 1.525024341607e+00 1.530492126744e+00 1.535420056164e+00 1.539806639180e+00 1.543619240403e+00 1.546860046556e+00 1.549503010070e+00 1.551554022950e+00 1.552993867403e+00 1.553831973768e+00 1.554055965127e+00 1.553678576314e+00 1.552694342823e+00 1.551119065684e+00 1.548953822181e+00 1.546216874604e+00 1.542915372705e+00 1.539069496634e+00 1.534691946009e+00 1.529804267451e+00 1.524424119620e+00 1.518573859347e+00 1.512275458505e+00 1.505551538569e+00 1.498427704855e+00 1.490926326570e+00 1.483075951635e+00 1.474898226115e+00 1.466423960930e+00 1.457673669104e+00 1.448679776036e+00 1.439461324025e+00 1.430051751837e+00 1.420468372523e+00 1.410745096729e+00 1.400897331541e+00 1.390958985642e+00 1.380943463840e+00 1.370884270712e+00 1.360792788016e+00 1.350701786303e+00 1.340620671457e+00 1.330581219861e+00 1.320590967114e+00 1.310680500331e+00 1.300855638104e+00 1.291145641795e+00 1.281554802778e+00 1.272110971270e+00 1.262817126672e+00 1.253699665625e+00 1.244760485799e+00 1.236024522447e+00 1.227492827209e+00 1.219188892497e+00 1.211113156640e+00 1.203287706155e+00 1.195712588523e+00 1.188408532141e+00 1.181375399721e+00 1.174632613017e+00 1.168180034532e+00 1.162035827849e+00 1.156200014002e+00 1.150689537511e+00 1.145504707101e+00 1.140661271874e+00 1.136159924377e+00 1.132015220489e+00 1.128228296315e+00 1.124812489405e+00 1.121769399423e+00 1.119111087753e+00 1.116839595091e+00 1.114965612215e+00 1.113491555478e+00 1.112426615317e+00 1.111773484307e+00 1.111539707643e+00 1.111728174211e+00 1.112344697308e+00 1.113392246590e+00 1.114874617914e+00 1.116794547584e+00 1.119153477037e+00 1.121953604751e+00 1.125193687877e+00 1.128875077644e+00 1.132993521219e+00 1.137549215657e+00 1.142534591344e+00 1.147948401878e+00 1.153779491310e+00 1.160024914316e+00 1.166669714127e+00 1.173709039072e+00 1.181123987019e+00 1.188907650996e+00 1.197037119421e+00 1.205503345510e+00 1.214279430439e+00 1.223354169441e+00 1.232696786986e+00 1.242293967670e+00 1.252111257870e+00 1.262133342704e+00 1.272322376330e+00 1.282661218450e+00 1.293109004082e+00 1.303647005349e+00 1.314231799585e+00 1.324843375594e+00 1.335436304664e+00 1.345989666358e+00 1.356456668748e+00 1.366815928383e+00 1.377020022317e+00 1.387047621607e+00 1.396851487105e+00 1.406410927100e+00 1.415679770300e+00 1.424638597324e+00 1.433243236968e+00 1.441476209378e+00 1.449296294951e+00 1.456688625118e+00 1.463615866708e+00 1.470066404937e+00 1.476007669626e+00 1.481431874384e+00 1.486311984710e+00 1.490644507064e+00 1.494408562535e+00 1.497605258344e+00 1.500220283988e+00 1.502259443358e+00 1.503715131860e+00 1.504597655716e+00 1.504905877590e+00 1.504654002922e+00 1.503846686995e+00 1.502501244000e+00 1.500627518596e+00 1.498245330433e+00 1.495369153585e+00 1.492020696690e+00 1.488218423352e+00 1.483985273043e+00 1.479342994259e+00 1.474315084004e+00 1.468925838535e+00 1.463198656535e+00 1.457159647381e+00 1.450831503934e+00 1.444241448134e+00 1.437410933098e+00 1.430367652238e+00 1.423131376379e+00 1.415729706808e+00 1.408180390858e+00 1.400510462239e+00 1.392735407593e+00 1.384881309653e+00 1.376961257555e+00 1.369000090021e+00 1.361008453731e+00 1.353009734726e+00 1.345012172189e+00 1.337037566212e+00 1.329091849385e+00 1.321195167284e+00 1.313351297998e+00 1.305578717368e+00 1.297879237776e+00 1.290269692255e+00 1.282750139514e+00 1.275335828443e+00 1.268025287462e+00 1.260832262492e+00 1.253753976353e+00 1.246802767837e+00 1.239974772128e+00 1.233281024974e+00 1.226716779049e+00 1.220291874363e+00 1.214000869068e+00 1.207852514152e+00 1.201840841382e+00 1.195973616113e+00 1.190244490612e+00 1.184660342792e+00 1.179214570729e+00 1.173913256681e+00 1.168749648759e+00 1.163729118259e+00 1.158844847561e+00 1.154101574283e+00 1.149492480791e+00 1.145021740845e+00 1.140682585748e+00 1.136478687885e+00 1.132403361539e+00 1.128459833126e+00 1.124641520959e+00 1.120951254162e+00 1.117382565005e+00 1.113937927702e+00 1.110610989093e+00 1.107403905041e+00 1.104310429965e+00 1.101332432648e+00 1.098463762073e+00 1.095706026487e+00 1.093053151857e+00 1.090506508327e+00 1.088060078006e+00 1.085715011874e+00 1.083465325280e+00 1.081311966130e+00 1.079248959085e+00 1.077277062869e+00 1.075390287438e+00 1.073589214666e+00 1.071867816499e+00 1.070226509368e+00 1.068659205319e+00 1.067166166421e+00 1.065741224950e+00 1.064384499948e+00 1.063089726584e+00 1.061856893009e+00 1.060679622947e+00 1.059557787102e+00 1.058484886816e+00 1.057460690604e+00 1.056478570285e+00 1.055538209724e+00 1.054632848256e+00 1.053762105414e+00 1.052919089688e+00 1.052103379861e+00 1.051307960280e+00 1.050532396369e+00 1.049769560630e+00 1.049019036917e+00 1.048273604420e+00 1.047532902281e+00 1.046789641914e+00 1.046043560487e+00 1.045287335102e+00 1.044520850514e+00 1.043736792053e+00 1.042935249583e+00 1.042108969617e+00 1.041258313966e+00 1.040376155259e+00 1.039463204951e+00 1.038512540476e+00 1.037525313238e+00 1.036494899881e+00 1.035422996599e+00 1.034303391511e+00 1.033138447082e+00 1.031922495286e+00 1.030658705208e+00 1.029342107506e+00 1.027976839368e+00 1.026558809653e+00 1.025093308363e+00 1.023577328677e+00 1.022017523002e+00 1.020412202783e+00 1.018769618072e+00 1.017089660381e+00 1.015382437648e+00 1.013649709427e+00 1.011903724649e+00 1.010148424614e+00 1.008398522299e+00 1.006660605785e+00 1.004952984246e+00 1.003290032330e+00 1.001721932378e+00 1.000000000000e+00 1.000000000000e+00 1.000000000000e+00 1.000000000000e+00 
1.000000000000e+00 1.000081880136e+00 1.000328913669e+00 1.000740474796e+00 1.001318385116e+00 1.002062114134e+00 1.002973731816e+00 1.004052915761e+00 1.005301955067e+00 1.006720695416e+00 1.008311610361e+00 1.010074661834e+00 1.012012460368e+00 1.014125019388e+00 1.016415026171e+00 1.018882468201e+00 1.021530036808e+00 1.024357603792e+00 1.027367779914e+00 1.030560219978e+00 1.033937358556e+00 1.037498521778e+00 1.041245862918e+00 1.045178259266e+00 1.049297470417e+00 1.053601798827e+00 1.058092493835e+00 1.062767154793e+00 1.067626404023e+00 1.072667011753e+00 1.077888861302e+00 1.083287775453e+00 1.088862797183e+00 1.094608697479e+00 1.100523594845e+00 1.106601124929e+00 1.112838421821e+00 1.119227930096e+00 1.125765770594e+00 1.132443175565e+00 1.139255261124e+00 1.146192066101e+00 1.153247752727e+00 1.160411229460e+00 1.167675800698e+00 1.175029353335e+00 1.182464475428e+00 1.189968185528e+00 1.197532539341e+00 1.205143880054e+00 1.212793951183e+00 1.220468645295e+00 1.228159640494e+00 1.235852624227e+00 1.243539470311e+00 1.251205914083e+00 1.258844286486e+00 1.266440616824e+00 1.273987940224e+00 1.281472804767e+00 1.288889168568e+00 1.296224289171e+00 1.303473226324e+00 1.310624093380e+00 1.317673181408e+00 1.324609554900e+00 1.331430811897e+00 1.338127009652e+00 1.344697073670e+00 1.351132043153e+00 1.357432139000e+00 1.363589323893e+00 1.369605035156e+00 1.375472060369e+00 1.381192935313e+00 1.386761143097e+00 1.392180170145e+00 1.397444045133e+00 1.402557036990e+00 1.407513559562e+00 1.412318484961e+00 1.416966450877e+00 1.421462750316e+00 1.425802090938e+00 1.429990008423e+00 1.434021141021e+00 1.437901098653e+00 1.441624330956e+00 1.445196367927e+00 1.448611375940e+00 1.451874668576e+00 1.454980062070e+00 1.457932537259e+00 1.460725523357e+00 1.463363574064e+00 1.465839726028e+00 1.468158034518e+00 1.470311169941e+00 1.472302641556e+00 1.474124811490e+00 1.475780619198e+00 1.477262207021e+00 1.478571944062e+00 1.479701869871e+00 1.480653804523e+00 1.481419826983e+00 1.482001248840e+00 1.482390350512e+00 1.482587989392e+00 1.482586821687e+00 1.482387341900e+00 1.481982834866e+00 1.481373564303e+00 1.480553646703e+00 1.479523199618e+00 1.478277373450e+00 1.476816243223e+00 1.475136197458e+00 1.473237373623e+00 1.471117591269e+00 1.468777151451e+00 1.466215480210e+00 1.463433134563e+00 1.460431298299e+00 1.457210863674e+00 1.453774893958e+00 1.450124679572e+00 1.446265251262e+00 1.442198341813e+00 1.437931000809e+00 1.433465427656e+00 1.428810704090e+00 1.423969500411e+00 1.418952905816e+00 1.413764046870e+00 1.408415958980e+00 1.402912193543e+00 1.397267637036e+00 1.391486220370e+00 1.385584555712e+00 1.379566897804e+00 1.373451433247e+00 1.367242678406e+00 1.360960221963e+00 1.354608777090e+00 1.348209145985e+00 1.341766174974e+00 1.335301679728e+00 1.328820580617e+00 1.322345499643e+00 1.315881379512e+00 1.309451438116e+00 1.303060598410e+00 1.296732463573e+00 1.290471905844e+00 1.284302705285e+00 1.278229664339e+00 1.272276535342e+00 1.266448043763e+00 1.260767714211e+00 1.255240199216e+00 1.249888600361e+00 1.244717511118e+00 1.239749418855e+00 1.234988879704e+00 1.230457578512e+00 1.226160060971e+00 1.222117022152e+00 1.218333026060e+00 1.214827589331e+00 1.211605320784e+00 1.208684365408e+00 1.206069396049e+00 1.203776984263e+00 1.201811872664e+00 1.200188844060e+00 1.198912696020e+00 1.197996189470e+00 1.197444139069e+00 1.197267046171e+00 1.197469740789e+00 1.198060345650e+00 1.199043745223e+00 1.200425415599e+00 1.202210135736e+00 1.204400422091e+00 1.207000789058e+00 1.210010488467e+00 1.213433589563e+00 1.217265774204e+00 1.221510461401e+00 1.226159463035e+00 1.231215323200e+00 1.236665700001e+00 1.242512027302e+00 1.248737556048e+00 1.255342376017e+00 1.262305124758e+00 1.269624330175e+00 1.277273875776e+00 1.285250542206e+00 1.293523402991e+00 1.302087355669e+00 1.310906711163e+00 1.319974414336e+00 1.329250180940e+00 1.338725015007e+00 1.348354338036e+00 1.358127318617e+00 1.367995527116e+00 1.377946503464e+00 1.387928554929e+00 1.397927903378e+00 1.407890321557e+00 1.417801123804e+00 1.427604405374e+00 1.437285072857e+00 1.446786509478e+00 1.456093785610e+00 1.465150618715e+00 1.473942862375e+00 1.482415661022e+00 1.490556289523e+00 1.498312418744e+00 1.505673368268e+00 1.512590398193e+00 1.519055445863e+00 1.525024341607e+00 1.530492126744e+00 1.535420056164e+00 1.539806639180e+00 1.543619240403e+00 1.546860046556e+00 1.549503010070e+00 1.551554022950e+00 1.552993867403e+00 1.553831973768e+00 1.554055965127e+00 1.553678576314e+00 1.552694342823e+00 1.551119065684e+00 1.548953822181e+00 1.546216874604e+00 1.542915372705e+00 1.539069496634e+00 1.534691946009e+00 1.529804267451e+00 1.524424119620e+00 1.518573859347e+00 1.512275458505e+00 1.505551538569e+00 1.498427704855e+00 1.490926326570e+00 1.483075951635e+00 1.474898226115e+00 1.466423960930e+00 1.457673669104e+00 1.448679776036e+00 1.439461324025e+00 1.430051751837e+00 1.420468372523e+00 1.410745096729e+00 1.400897331541e+00 1.390958985642e+00 1.380943463840e+00 1.370884270712e+00 1.360792788016e+00 1.350701786303e+00 1.340620671457e+00 1.330581219861e+00 1.320590967114e+00 1.310680500331e+00 1.300855638104e+00 1.291145641795e+00 1.281554802778e+00 1.272110971270e+00 1.262817126672e+00 1.253699665625e+00 1.244760485799e+00 1.236024522447e+00 1.227492827209e+00 1.219188892497e+00 1.211113156640e+00 1.203287706155e+00 1.195712588523e+00 1.188408532141e+00 1.181375399721e+00 1.174632613017e+00 1.168180034532e+00 1.162035827849e+00 1.156200014002e+00 1.150689537511e+00 1.145504707101e+00 1.140661271874e+00 1.136159924377e+00 1.132015220489e+00 1.128228296315e+00 1.124812489405e+00 1.121769399423e+00 1.119111087753e+00 1.116839595091e+00 1.114965612215e+00 1.113491555478e+00 1.112426615317e+00 1.111773484307e+00 1.111539707643e+00 1.111728174211e+00 1.112344697308e+00 1.113392246590e+00 1.114874617914e+00 1.116794547584e+00 1.119153477037e+00 1.121953604751e+00 1.125193687877e+00 1.128875077644e+00 1.132993521219e+00 1.137549215657e+00 1.142534591344e+00 1.147948401878e+00 1.153779491310e+00 1.160024914316e+00 1.166669714127e+00 1.173709039072e+00 1.181123987019e+00 1.188907650996e+00 1.197037119421e+00 1.205503345510e+00 1.214279430439e+00 1.223354169441e+00 1.232696786986e+00 1.242293967670e+00 1.252111257870e+00 1.262133342704e+00 1.272322376330e+00 1.282661218450e+00 1.293109004082e+00 1.303647005349e+00 1.314231799585e+00 1.324843375594e+00 1.335436304664e+00 1.345989666358e+00 1.356456668748e+00 1.366815928383e+00 1.377020022317e+00 1.387047621607e+00 1.396851487105e+00 1.406410927100e+00 1.415679770300e+00 1.424638597324e+00 1.433243236968e+00 1.441476209378e+00 1.449296294951e+00 1.456688625118e+00 1.463615866708e+00 1.470066404937e+00 1.476007669626e+00 1.481431874384e+00 1.486311984710e+00 1.490644507064e+00 1.494408562535e+00 1.497605258344e+00 1.500220283988e+00 1.502259443358e+00 1.503715131860e+00 1.504597655716e+00 1.504905877590e+00 1.504654002922e+00 1.503846686995e+00 1.502501244000e+00 1.500627518596e+00 1.498245330433e+00 1.495369153585e+00 1.492020696690e+00 1.488218423352e+00 1.483985273043e+00 1.479342994259e+00 1.474315084004e+00 1.468925838535e+00 1.463198656535e+00 1.457159647381e+00 1.450831503934e+00 1.444241448134e+00 1.437410933098e+00 1.430367652238e+00 1.423131376379e+00 1.415729706808e+00 1.408180390858e+00 1.400510462239e+00 1.392735407593e+00 1.384881309653e+00 1.376961257555e+00 1.369000090021e+00 1.361008453731e+00 1.353009734726e+00 1.345012172189e+00 1.337037566212e+00 1.329091849385e+00 1.321195167284e+00 1.313351297998e+00 1.305578717368e+00 1.297879237776e+00 1.290269692255e+00 1.282750139514e+00 1.275335828443e+00 1.268025287462e+00 1.260832262492e+00 1.253753976353e+00 1.246802767837e+00 1.239974772128e+00 1.233281024974e+00 1.226716779049e+00 1.220291874363e+00 1.214000869068e+00 1.207852514152e+00 1.201840841382e+00 1.195973616113e+00 1.190244490612e+00 1.184660342792e+00 1.179214570729e+00 1.173913256681e+00 1.168749648759e+00 1.163729118259e+00 1.158844847561e+00 1.154101574283e+00 1.149492480791e+00 1.145021740845e+00 1.140682585748e+00 1.136478687885e+00 1.132403361539e+00 1.128459833126e+00 1.124641520959e+00 1.120951254162e+00 1.117382565005e+00 1.113937927702e+00 1.110610989093e+00 1.107403905041e+00 1.104310429965e+00 1.101332432648e+00 1.098463762073e+00 1.095706026487e+00 1.093053151857e+00 1.090506508327e+00 1.088060078006e+00 1.085715011874e+00 1.083465325280e+00 1.081311966130e+00 1.079248959085e+00 1.077277062869e+00 1.075390287438e+00 1.073589214666e+00 1.071867816499e+00 1.070226509368e+00 1.068659205319e+00 1.067166166421e+00 1.065741224950e+00 1.064384499948e+00 1.063089726584e+00 1.061856893009e+00 1.060679622947e+00 1.059557787102e+00 1.058484886816e+00 1.057460690604e+00 1.056478570285e+00 1.055538209724e+00 1.054632848256e+00 1.053762105414e+00 1.052919089688e+00 1.052103379861e+00 1.051307960280e+00 1.050532396369e+00 1.049769560630e+00 1.049019036917e+00 1.048273604420e+00 1.047532902281e+00 1.046789641914e+00 1.046043560487e+00 1.045287335102e+00 1.044520850514e+00 1.043736792053e+00 1.042935249583e+00 1.042108969617e+00 1.041258313966e+00 1.040376155259e+00 1.039463204951e+00 1.038512540476e+00 1.037525313238e+00 1.036494899881e+00 1.035422996599e+00 1.034303391511e+00 1.033138447082e+00 1.031922495286e+00 1.030658705208e+00 1.029342107506e+00 1.027976839368e+00 1.026558809653e+00 1.025093308363e+00 1.023577328677e+00 1.022017523002e+00 1.020412202783e+00 1.018769618072e+00 1.017089660381e+00 1.015382437648e+00 1.013649709427e+00 1.011903724649e+00 1.010148424614e+00 1.008398522299e+00 1.006660605785e+00 1.004952984246e+00 1.003290032330e+00 1.001721932378e+00 1.000000000000e+00 1.000000000000e+00 1.000000000000e+00 1.000000000000e+00 
1.000000000000e+00 1.000082297044e+00 1.000328600798e+00 1.000740583943e+00 1.001317616623e+00 1.002061651799e+00 1.002972270791e+00 1.004051662177e+00 1.005299601285e+00 1.006718485169e+00 1.008308236810e+00 1.010071419785e+00 1.012008045769e+00 1.014120790564e+00 1.016409683107e+00 1.018877444687e+00 1.021524037619e+00 1.024352149696e+00 1.027361580675e+00 1.030554894244e+00 1.033931620497e+00 1.037494097929e+00 1.041241470169e+00 1.045175740757e+00 1.049295542577e+00 1.053602428378e+00 1.058094391617e+00 1.062772415865e+00 1.067633726100e+00 1.072678620263e+00 1.077903430441e+00 1.083307659902e+00 1.088886633997e+00 1.094638965988e+00 1.100558877890e+00 1.106644018267e+00 1.112887433531e+00 1.119285760632e+00 1.125830829515e+00 1.132518253208e+00 1.139338642156e+00 1.146286613642e+00 1.153351598504e+00 1.160527291127e+00 1.167802028609e+00 1.175168701741e+00 1.182614686039e+00 1.190132233240e+00 1.197707932804e+00 1.205333602567e+00 1.212995258452e+00 1.220684522090e+00 1.228387075669e+00 1.236094603658e+00 1.243792709116e+00 1.251473406174e+00 1.259122473859e+00 1.266732515725e+00 1.274289727473e+00 1.281787539978e+00 1.289212777833e+00 1.296559901934e+00 1.303816537563e+00 1.310978332431e+00 1.318033835186e+00 1.324979984139e+00 1.331806320102e+00 1.338511119669e+00 1.345084930116e+00 1.351527358805e+00 1.357829922551e+00 1.363993501191e+00 1.370010499432e+00 1.375882967640e+00 1.381604080849e+00 1.387176923253e+00 1.392595296837e+00 1.397863157822e+00 1.402974776427e+00 1.407934803569e+00 1.412737813689e+00 1.417388968380e+00 1.421882986062e+00 1.426225355990e+00 1.430410791843e+00 1.434444934921e+00 1.438322363317e+00 1.442048707219e+00 1.445618301131e+00 1.449036617317e+00 1.452297665276e+00 1.455406631766e+00 1.458357149098e+00 1.461154012264e+00 1.463790455176e+00 1.466270797551e+00 1.468587885578e+00 1.470745503831e+00 1.472736153477e+00 1.474563048104e+00 1.476218417928e+00 1.477704893538e+00 1.479014538137e+00 1.480149410286e+00 1.481101537467e+00 1.481872438494e+00 1.482454260081e+00 1.482848032212e+00 1.483046195054e+00 1.483049359256e+00 1.482850461000e+00 1.482449803827e+00 1.481841052539e+00 1.481024310572e+00 1.479994178811e+00 1.478750661903e+00 1.477289504002e+00 1.475610717793e+00 1.473711391195e+00 1.471591650156e+00 1.469250112404e+00 1.466687116057e+00 1.463902973514e+00 1.460898322826e+00 1.457675308664e+00 1.454234941800e+00 1.450581304676e+00 1.446715835681e+00 1.442644624789e+00 1.438369573160e+00 1.433898810162e+00 1.429234714494e+00 1.424387448209e+00 1.419359862456e+00 1.414164107499e+00 1.408803483629e+00 1.403292049223e+00 1.397633514768e+00 1.391843734299e+00 1.385926777215e+00 1.379900152524e+00 1.373768228692e+00 1.367550005466e+00 1.361250085941e+00 1.354888777764e+00 1.348470853554e+00 1.342017732324e+00 1.335534294081e+00 1.329042863602e+00 1.322548372301e+00 1.316073840194e+00 1.309624202841e+00 1.303222963558e+00 1.296875025391e+00 1.290604164363e+00 1.284415226088e+00 1.278332052031e+00 1.272359417577e+00 1.266521026892e+00 1.260821584106e+00 1.255284458304e+00 1.249914292070e+00 1.244733926316e+00 1.239747960825e+00 1.234978519013e+00 1.230430183312e+00 1.226124172564e+00 1.222065081028e+00 1.218273036020e+00 1.214752672850e+00 1.211522837747e+00 1.208588231885e+00 1.205966224790e+00 1.203661598495e+00 1.201690040013e+00 1.200056411272e+00 1.198774496755e+00 1.197849216967e+00 1.197292222523e+00 1.197108463885e+00 1.197307254743e+00 1.197893591485e+00 1.198874270952e+00 1.200254267503e+00 1.202037571072e+00 1.204228986566e+00 1.206829391829e+00 1.209843251034e+00 1.213268022627e+00 1.217107633349e+00 1.221355816345e+00 1.226015741110e+00 1.231077119607e+00 1.236542128123e+00 1.242396184192e+00 1.248640229402e+00 1.255255151880e+00 1.262240425077e+00 1.269572228872e+00 1.277248358997e+00 1.285240183546e+00 1.293543651965e+00 1.302125311646e+00 1.310979155622e+00 1.320067014435e+00 1.329380889493e+00 1.338878126675e+00 1.348548789611e+00 1.358346111556e+00 1.368258371726e+00 1.378235208703e+00 1.388263375693e+00 1.398289579866e+00 1.408299411362e+00 1.418237446339e+00 1.428088572156e+00 1.437796155325e+00 1.447344923854e+00 1.456678052805e+00 1.465780716453e+00 1.474596981990e+00 1.483113110789e+00 1.491275173503e+00 1.499071162835e+00 1.506450249744e+00 1.513402770776e+00 1.519882034588e+00 1.525881265650e+00 1.531358842568e+00 1.536311316829e+00 1.540702919728e+00 1.544533829366e+00 1.547774722150e+00 1.550429532721e+00 1.552475751031e+00 1.553921008639e+00 1.554749740012e+00 1.554973045434e+00 1.554582279916e+00 1.553591752736e+00 1.551999564177e+00 1.549822766425e+00 1.547065795860e+00 1.543747912030e+00 1.539879393608e+00 1.535481158096e+00 1.530568760969e+00 1.525164218562e+00 1.519287733934e+00 1.512961865158e+00 1.506210788898e+00 1.499057067589e+00 1.491528155588e+00 1.483646120295e+00 1.475440999136e+00 1.466933919638e+00 1.458156830464e+00 1.449129542332e+00 1.439885284424e+00 1.430442250797e+00 1.420834375886e+00 1.411078019050e+00 1.401207310211e+00 1.391236638295e+00 1.381199890304e+00 1.371109427926e+00 1.360998530243e+00 1.350877547374e+00 1.340778857626e+00 1.330710878857e+00 1.320704864035e+00 1.310767431326e+00 1.300928546205e+00 1.291193201844e+00 1.281589969263e+00 1.272122422165e+00 1.262817677306e+00 1.253678114417e+00 1.244729374931e+00 1.235972879993e+00 1.227432804982e+00 1.219109848721e+00 1.211026751940e+00 1.203183720428e+00 1.195602105992e+00 1.188281837051e+00 1.181242929174e+00 1.174485229866e+00 1.168027471219e+00 1.161869592442e+00 1.156029088491e+00 1.150506135130e+00 1.145317023951e+00 1.140462280867e+00 1.135957009358e+00 1.131802164540e+00 1.128011652695e+00 1.124586899399e+00 1.121540574756e+00 1.118874575249e+00 1.116600261284e+00 1.114719958268e+00 1.113243607393e+00 1.112173882150e+00 1.111519167383e+00 1.111282384506e+00 1.111470228535e+00 1.112085769910e+00 1.113133829858e+00 1.114617398382e+00 1.116539108614e+00 1.118901568192e+00 1.121704888157e+00 1.124950980928e+00 1.128637100660e+00 1.132764148954e+00 1.137326200012e+00 1.142322839893e+00 1.147744669261e+00 1.153589681358e+00 1.159844758103e+00 1.166506065948e+00 1.173556588100e+00 1.180990486118e+00 1.188786742454e+00 1.196937399431e+00 1.205417422218e+00 1.214216686419e+00 1.223306211823e+00 1.232673726057e+00 1.242286463504e+00 1.252130086301e+00 1.262168289808e+00 1.272384814650e+00 1.282740148755e+00 1.293216316225e+00 1.303771014700e+00 1.314384819627e+00 1.325013142891e+00 1.335635445711e+00 1.346205448352e+00 1.356701902670e+00 1.367077521709e+00 1.377310825210e+00 1.387354290504e+00 1.397186752526e+00 1.406761302450e+00 1.416057699252e+00 1.425030559051e+00 1.433661219326e+00 1.441906769172e+00 1.449750800970e+00 1.457153829343e+00 1.464102369122e+00 1.470561278467e+00 1.476520616832e+00 1.481950425448e+00 1.486844844542e+00 1.491179812267e+00 1.494953955879e+00 1.498149648044e+00 1.500770230219e+00 1.502804811985e+00 1.504261432508e+00 1.505135920673e+00 1.505440644447e+00 1.505177658694e+00 1.504362808823e+00 1.503003604777e+00 1.501118700590e+00 1.498720543608e+00 1.495830008356e+00 1.492463878381e+00 1.488644605438e+00 1.484392625463e+00 1.479731291311e+00 1.474683956490e+00 1.469274199486e+00 1.463527542322e+00 1.457467148019e+00 1.451119978523e+00 1.444508203619e+00 1.437659546154e+00 1.430594690015e+00 1.423341511338e+00 1.415918814369e+00 1.408354106474e+00 1.400664023418e+00 1.392875274195e+00 1.385002141214e+00 1.377070198583e+00 1.369091287847e+00 1.361089600452e+00 1.353074536216e+00 1.345068736899e+00 1.337079232955e+00 1.329127019940e+00 1.321216889811e+00 1.313368154525e+00 1.305583542007e+00 1.297880690802e+00 1.290260468717e+00 1.282738887669e+00 1.275315175922e+00 1.268003792221e+00 1.260802551521e+00 1.253724450935e+00 1.246766114996e+00 1.239939181672e+00 1.233239297582e+00 1.226676849295e+00 1.220246702538e+00 1.213958101104e+00 1.207805307939e+00 1.201796530356e+00 1.195925585755e+00 1.190199746688e+00 1.184612520602e+00 1.179170340946e+00 1.173866519316e+00 1.168706738765e+00 1.163684208518e+00 1.158803942514e+00 1.154059121794e+00 1.149454164901e+00 1.144982281241e+00 1.140647360171e+00 1.136442680203e+00 1.132371660427e+00 1.128427675303e+00 1.124613725601e+00 1.120923296568e+00 1.117359016040e+00 1.113914484736e+00 1.110591996835e+00 1.107385264823e+00 1.104296282912e+00 1.101318864895e+00 1.098454733674e+00 1.095697788655e+00 1.093049505651e+00 1.090503850133e+00 1.088062071227e+00 1.085718178310e+00 1.083473211057e+00 1.081321199091e+00 1.079262987349e+00 1.077292601530e+00 1.075410704674e+00 1.073611294735e+00 1.071894864470e+00 1.070255361364e+00 1.068693118898e+00 1.067202013104e+00 1.065782229184e+00 1.064427553030e+00 1.063138033104e+00 1.061907349258e+00 1.060735425820e+00 1.059615823904e+00 1.058548357882e+00 1.057526461030e+00 1.056549853988e+00 1.055611837068e+00 1.054712055924e+00 1.053843677143e+00 1.053006293140e+00 1.052192940818e+00 1.051403184606e+00 1.050629941055e+00 1.049872775928e+00 1.049124500622e+00 1.048384716247e+00 1.047646150810e+00 1.046908480200e+00 1.046164378217e+00 1.045413641244e+00 1.044648926496e+00 1.043870203901e+00 1.043070161378e+00 1.042249004014e+00 1.041399508851e+00 1.040522187739e+00 1.039609978049e+00 1.038663781639e+00 1.037676782068e+00 1.036650367919e+00 1.035578071496e+00 1.034461880334e+00 1.033295796970e+00 1.032082537814e+00 1.030816718389e+00 1.029501933920e+00 1.028133579304e+00 1.026716300806e+00 1.025246464919e+00 1.023729965481e+00 1.022164360362e+00 1.020557013215e+00 1.018906921470e+00 1.017223166831e+00 1.015506462258e+00 1.013767880404e+00 1.012010151425e+00 1.010246636504e+00 1.008482427835e+00 1.006733625578e+00 1.005008851912e+00 1.003332131012e+00 1.001744260236e+00 1.000000000000e+00 1.000000000000e+00 1.000000000000e+00 1.000000000000e+00 