# vtk DataFile Version 3.0
Vortex Output
ASCII
DATASET STRUCTURED_POINTS
FIELD FieldData 2
TIME 1 1 double
5.000000
CYCLE 1 1 int
2000
DIMENSIONS 514 130 1
ORIGIN 0 0 0
SPACING 1 1 1
POINT_DATA 66820
SCALARS u double 1
LOOKUP_TABLE default
1.000081880339e+00 1.000081880339e+00 1.000328913700e+00 1.000740475110e+00 1.001318385265e+00 1.002062114569e+00 1.002973732091e+00 1.004052916322e+00 1.005301955473e+00 1.006720696100e+00 1.008311610891e+00 1.010074662634e+00 1.012012461017e+00 1.014125020295e+00 1.016415026930e+00 1.018882469203e+00 1.021530037660e+00 1.024357604867e+00 1.027367780840e+00 1.030560221106e+00 1.033937359537e+00 1.037498522941e+00 1.041245863940e+00 1.045178260451e+00 1.049297471470e+00 1.053601800024e+00 1.058092494910e+00 1.062767155994e+00 1.067626405113e+00 1.072667012950e+00 1.077888862399e+00 1.083287776637e+00 1.088862798278e+00 1.094608698638e+00 1.100523595926e+00 1.106601126048e+00 1.112838422872e+00 1.119227931161e+00 1.125765771600e+00 1.132443176558e+00 1.139255262067e+00 1.146192067008e+00 1.153247753592e+00 1.160411230264e+00 1.167675801469e+00 1.175029354022e+00 1.182464476090e+00 1.189968186085e+00 1.197532539880e+00 1.205143880468e+00 1.212793951585e+00 1.220468645555e+00 1.228159640746e+00 1.235852624323e+00 1.243539470402e+00 1.251205914006e+00 1.258844286406e+00 1.266440616564e+00 1.273987939960e+00 1.281472804318e+00 1.288889168112e+00 1.296224288525e+00 1.303473225666e+00 1.310624092530e+00 1.317673180538e+00 1.324609553841e+00 1.331430810808e+00 1.338127008378e+00 1.344697072354e+00 1.351132041660e+00 1.357432137449e+00 1.363589322174e+00 1.369605033362e+00 1.375472058420e+00 1.381192933269e+00 1.386761140912e+00 1.392180167844e+00 1.397444042707e+00 1.402557034424e+00 1.407513556887e+00 1.412318482121e+00 1.416966447944e+00 1.421462747191e+00 1.425802087736e+00 1.429990005001e+00 1.434021137536e+00 1.437901094918e+00 1.441624327172e+00 1.445196363862e+00 1.448611371837e+00 1.451874664161e+00 1.454980057625e+00 1.457932532470e+00 1.460725518543e+00 1.463363568876e+00 1.465839720816e+00 1.468158028900e+00 1.470311164297e+00 1.472302635478e+00 1.474124805378e+00 1.475780612623e+00 1.477262200401e+00 1.478571936952e+00 1.479701862701e+00 1.480653796835e+00 1.481419819219e+00 1.482001240530e+00 1.482390342103e+00 1.482587980406e+00 1.482586812573e+00 1.482387332167e+00 1.481982824967e+00 1.481373553732e+00 1.480553635928e+00 1.479523188125e+00 1.478277361727e+00 1.476816230727e+00 1.475136184696e+00 1.473237360029e+00 1.471117577402e+00 1.468777136726e+00 1.466215465222e+00 1.463433118660e+00 1.460431282091e+00 1.457210846403e+00 1.453774876212e+00 1.450124660407e+00 1.446265231138e+00 1.442198319540e+00 1.437930977020e+00 1.433465401827e+00 1.428810678219e+00 1.423969474844e+00 1.418952882131e+00 1.413764023471e+00 1.408415935903e+00 1.402912169020e+00 1.397267612162e+00 1.391486194201e+00 1.385584529390e+00 1.379566870109e+00 1.373451405468e+00 1.367242649317e+00 1.360960192897e+00 1.354608746714e+00 1.348209115615e+00 1.341766143159e+00 1.335301647790e+00 1.328820547055e+00 1.322345465854e+00 1.315881343996e+00 1.309451402326e+00 1.303060560815e+00 1.296732425644e+00 1.290471866017e+00 1.284302665041e+00 1.278229622096e+00 1.272276492579e+00 1.266447998892e+00 1.260767668701e+00 1.255240151492e+00 1.249888551882e+00 1.244717460332e+00 1.239749367202e+00 1.234988825679e+00 1.230457523523e+00 1.226160003562e+00 1.222116963692e+00 1.218332965148e+00 1.214827527287e+00 1.211605256262e+00 1.208684299663e+00 1.206069327792e+00 1.203776914682e+00 1.201811800526e+00 1.200188770494e+00 1.198912619866e+00 1.197996111818e+00 1.197444058832e+00 1.197266964392e+00 1.197469656443e+00 1.198060259755e+00 1.199043656831e+00 1.200425325714e+00 1.202210043472e+00 1.204400328473e+00 1.207000693303e+00 1.210010391676e+00 1.213433491127e+00 1.217265675494e+00 1.221510362304e+00 1.226159365494e+00 1.231215227262e+00 1.236665606410e+00 1.242511933187e+00 1.248737459052e+00 1.255342272906e+00 1.262305016667e+00 1.269624218498e+00 1.277273763608e+00 1.285250429586e+00 1.293523290822e+00 1.302087243052e+00 1.310906599350e+00 1.319974302782e+00 1.329250070913e+00 1.338724906020e+00 1.348354231428e+00 1.358127213938e+00 1.367995425664e+00 1.377946404693e+00 1.387928459992e+00 1.397927811601e+00 1.407890233942e+00 1.417801039562e+00 1.427604325403e+00 1.437284996366e+00 1.446786437389e+00 1.456093717226e+00 1.465150555008e+00 1.473942802713e+00 1.482415606367e+00 1.490556239275e+00 1.498312373827e+00 1.505673328098e+00 1.512590363631e+00 1.519055416321e+00 1.525024317854e+00 1.530492108171e+00 1.535420043427e+00 1.539806631644e+00 1.543619238599e+00 1.546860049831e+00 1.549503018843e+00 1.551554036568e+00 1.552993886179e+00 1.553831997074e+00 1.554055993183e+00 1.553678608523e+00 1.552694379319e+00 1.551119105913e+00 1.548953866196e+00 1.546216921902e+00 1.542915423267e+00 1.539069550009e+00 1.534692002115e+00 1.529804325894e+00 1.524424180261e+00 1.518573921843e+00 1.512275522666e+00 1.505551604101e+00 1.498427771516e+00 1.490926394109e+00 1.483076019764e+00 1.474898294623e+00 1.466424029488e+00 1.457673737537e+00 1.448679843991e+00 1.439461391365e+00 1.430051818196e+00 1.420468437810e+00 1.410745160581e+00 1.400897393915e+00 1.390959046190e+00 1.380943522566e+00 1.370884327289e+00 1.360792842491e+00 1.350701838372e+00 1.340620721199e+00 1.330581266994e+00 1.320591011741e+00 1.310680542187e+00 1.300855677306e+00 1.291145678094e+00 1.281554836295e+00 1.272111001770e+00 1.262817154275e+00 1.253699690107e+00 1.244760507274e+00 1.236024540703e+00 1.227492842352e+00 1.219188904329e+00 1.211113165254e+00 1.203287711370e+00 1.195712590420e+00 1.188408530553e+00 1.181375394719e+00 1.174632604448e+00 1.168180022456e+00 1.162035812129e+00 1.156199994686e+00 1.150689514479e+00 1.145504680390e+00 1.140661241380e+00 1.136159890127e+00 1.132015182396e+00 1.128228254398e+00 1.124812443596e+00 1.121769349737e+00 1.119111034141e+00 1.116839537564e+00 1.114965550747e+00 1.113491490081e+00 1.112426545987e+00 1.111773411063e+00 1.111539630506e+00 1.111728093208e+00 1.112344612484e+00 1.113392157986e+00 1.114874525605e+00 1.116794451627e+00 1.119153377539e+00 1.121953501792e+00 1.125193581598e+00 1.128874968152e+00 1.132993408693e+00 1.137549100232e+00 1.142534473240e+00 1.147948281265e+00 1.153779368447e+00 1.160024789412e+00 1.166669587483e+00 1.173708910934e+00 1.181123857731e+00 1.188907520846e+00 1.197036988792e+00 1.205503214731e+00 1.214279299933e+00 1.223354039575e+00 1.232696658219e+00 1.242293840405e+00 1.252111132598e+00 1.262133219860e+00 1.272322256430e+00 1.282661101955e+00 1.293108891525e+00 1.303646897213e+00 1.314231696409e+00 1.324843277870e+00 1.335436212928e+00 1.345989581102e+00 1.356456590492e+00 1.366815857607e+00 1.377019959511e+00 1.387047567222e+00 1.396851441589e+00 1.406410890862e+00 1.415679743728e+00 1.424638580773e+00 1.433243230752e+00 1.441476213781e+00 1.449296310199e+00 1.456688651414e+00 1.463615904178e+00 1.470066453690e+00 1.476007729683e+00 1.481431945750e+00 1.486312067295e+00 1.490644600769e+00 1.494408667155e+00 1.497605373675e+00 1.500220409718e+00 1.502259579185e+00 1.503715277372e+00 1.504597810525e+00 1.504906041202e+00 1.504654174881e+00 1.503846866748e+00 1.502501431039e+00 1.500627712326e+00 1.498245530309e+00 1.495369358984e+00 1.492020907048e+00 1.488218638034e+00 1.483985491480e+00 1.479343215823e+00 1.474315308132e+00 1.468926064622e+00 1.463198884039e+00 1.457159875731e+00 1.450831732618e+00 1.444241676628e+00 1.437411160929e+00 1.430367878937e+00 1.423131601517e+00 1.415729929977e+00 1.408180611678e+00 1.400510680364e+00 1.392735622694e+00 1.384881521447e+00 1.376961465762e+00 1.369000294422e+00 1.361008654093e+00 1.353009930888e+00 1.345012363964e+00 1.337037753495e+00 1.329092032027e+00 1.321195345230e+00 1.313351471137e+00 1.305578885687e+00 1.297879401198e+00 1.290269850802e+00 1.282750293138e+00 1.275335977199e+00 1.268025431323e+00 1.260832401537e+00 1.253754110579e+00 1.246802897341e+00 1.239974896925e+00 1.233281145173e+00 1.226716894682e+00 1.220291985546e+00 1.214000975848e+00 1.207852616647e+00 1.201840939653e+00 1.195973710275e+00 1.190244580741e+00 1.184660428995e+00 1.179214653096e+00 1.173913335308e+00 1.168749723750e+00 1.163729189699e+00 1.158844915565e+00 1.154101638921e+00 1.149492542191e+00 1.145021799063e+00 1.140682640921e+00 1.136478740051e+00 1.132403410846e+00 1.128459879594e+00 1.124641564740e+00 1.120951295261e+00 1.117382603585e+00 1.113937963759e+00 1.110611022798e+00 1.107403936376e+00 1.104310459105e+00 1.101332459569e+00 1.098463786968e+00 1.095706049338e+00 1.093053172850e+00 1.090506527413e+00 1.088060095336e+00 1.085715027359e+00 1.083465339026e+00 1.081311977975e+00 1.079248969006e+00 1.077277070570e+00 1.075390292991e+00 1.073589218390e+00 1.071867819473e+00 1.070226512469e+00 1.068659208927e+00 1.067166169853e+00 1.065741227533e+00 1.064384501169e+00 1.063089726583e+00 1.061856891841e+00 1.060679620875e+00 1.059557784134e+00 1.058484883198e+00 1.057460686327e+00 1.056478565573e+00 1.055538204540e+00 1.054632842805e+00 1.053762099623e+00 1.052919083734e+00 1.052103373636e+00 1.051307953952e+00 1.050532389815e+00 1.049769554019e+00 1.049019030116e+00 1.048273597606e+00 1.047532895322e+00 1.046789635001e+00 1.046043553483e+00 1.045287328210e+00 1.044520843585e+00 1.043736785295e+00 1.042935242840e+00 1.042108963103e+00 1.041258307512e+00 1.040376149083e+00 1.039463198875e+00 1.038512534722e+00 1.037525307612e+00 1.036494894612e+00 1.035422991478e+00 1.034303386772e+00 1.033138442502e+00 1.031922491103e+00 1.030658701187e+00 1.029342103891e+00 1.027976835912e+00 1.026558806604e+00 1.025093305462e+00 1.023577326177e+00 1.022017520633e+00 1.020412200803e+00 1.018769616202e+00 1.017089658881e+00 1.015382436231e+00 1.013649708357e+00 1.011903723632e+00 1.010148423917e+00 1.008398521624e+00 1.006660605405e+00 1.004952983859e+00 1.003290032215e+00 1.001721932232e+00 1.000000000000e+00 1.000000000000e+00 1.000000000000e+00 1.000000000000e+00 
1.000000000000e+00 1.000081880339e+00 1.000328913700e+00 1.000740475110e+00 1.001318385265e+00 1.002062114569e+00 1.002973732091e+00 1.004052916322e+00 1.005301955473e+00 1.006720696100e+00 1.008311610891e+00 1.010074662634e+00 1.012012461017e+00 1.014125020295e+00 1.016415026930e+00 1.018882469203e+00 1.021530037660e+00 1.024357604867e+00 1.027367780840e+00 1.030560221106e+00 1.033937359537e+00 1.037498522941e+00 1.041245863940e+00 1.045178260451e+00 1.049297471470e+00 1.053601800024e+00 1.058092494910e+00 1.062767155994e+00 1.067626405113e+00 1.072667012950e+00 1.077888862399e+00 1.083287776637e+00 1.088862798278e+00 1.094608698638e+00 1.100523595926e+00 1.106601126048e+00 1.112838422872e+00 1.119227931161e+00 1.125765771600e+00 1.132443176558e+00 1.139255262067e+00 1.146192067008e+00 1.153247753592e+00 1.160411230264e+00 1.167675801469e+00 1.175029354022e+00 1.182464476090e+00 1.189968186085e+00 1.197532539880e+00 1.205143880468e+00 1.212793951585e+00 1.220468645555e+00 1.228159640746e+00 1.235852624323e+00 1.243539470402e+00 1.251205914006e+00 1.258844286406e+00 1.266440616564e+00 1.273987939960e+00 1.281472804318e+00 1.288889168112e+00 1.296224288525e+00 1.303473225666e+00 1.310624092530e+00 1.317673180538e+00 1.324609553841e+00 1.331430810808e+00 1.338127008378e+00 1.344697072354e+00 1.351132041660e+00 1.357432137449e+00 1.363589322174e+00 1.369605033362e+00 1.375472058420e+00 1.381192933269e+00 1.386761140912e+00 1.392180167844e+00 1.397444042707e+00 1.402557034424e+00 1.407513556887e+00 1.412318482121e+00 1.416966447944e+00 1.421462747191e+00 1.425802087736e+00 1.429990005001e+00 1.434021137536e+00 1.437901094918e+00 1.441624327172e+00 1.445196363862e+00 1.448611371837e+00 1.451874664161e+00 1.454980057625e+00 1.457932532470e+00 1.460725518543e+00 1.463363568876e+00 1.465839720816e+00 1.468158028900e+00 1.470311164297e+00 1.472302635478e+00 1.474124805378e+00 1.475780612623e+00 1.477262200401e+00 1.478571936952e+00 1.479701862701e+00 1.480653796835e+00 1.481419819219e+00 1.482001240530e+00 1.482390342103e+00 1.482587980406e+00 1.482586812573e+00 1.482387332167e+00 1.481982824967e+00 1.481373553732e+00 1.480553635928e+00 1.479523188125e+00 1.478277361727e+00 1.476816230727e+00 1.475136184696e+00 1.473237360029e+00 1.471117577402e+00 1.468777136726e+00 1.466215465222e+00 1.463433118660e+00 1.460431282091e+00 1.457210846403e+00 1.453774876212e+00 1.450124660407e+00 1.446265231138e+00 1.442198319540e+00 1.437930977020e+00 1.433465401827e+00 1.428810678219e+00 1.423969474844e+00 1.418952882131e+00 1.413764023471e+00 1.408415935903e+00 1.402912169020e+00 1.397267612162e+00 1.391486194201e+00 1.385584529390e+00 1.379566870109e+00 1.373451405468e+00 1.367242649317e+00 1.360960192897e+00 1.354608746714e+00 1.348209115615e+00 1.341766143159e+00 1.335301647790e+00 1.328820547055e+00 1.322345465854e+00 1.315881343996e+00 1.309451402326e+00 1.303060560815e+00 1.296732425644e+00 1.290471866017e+00 1.284302665041e+00 1.278229622096e+00 1.272276492579e+00 1.266447998892e+00 1.260767668701e+00 1.255240151492e+00 1.249888551882e+00 1.244717460332e+00 1.239749367202e+00 1.234988825679e+00 1.230457523523e+00 1.226160003562e+00 1.222116963692e+00 1.218332965148e+00 1.214827527287e+00 1.211605256262e+00 1.208684299663e+00 1.206069327792e+00 1.203776914682e+00 1.201811800526e+00 1.200188770494e+00 1.198912619866e+00 1.197996111818e+00 1.197444058832e+00 1.197266964392e+00 1.197469656443e+00 1.198060259755e+00 1.199043656831e+00 1.200425325714e+00 1.202210043472e+00 1.204400328473e+00 1.207000693303e+00 1.210010391676e+00 1.213433491127e+00 1.217265675494e+00 1.221510362304e+00 1.226159365494e+00 1.231215227262e+00 1.236665606410e+00 1.242511933187e+00 1.248737459052e+00 1.255342272906e+00 1.262305016667e+00 1.269624218498e+00 1.277273763608e+00 1.285250429586e+00 1.293523290822e+00 1.302087243052e+00 1.310906599350e+00 1.319974302782e+00 1.329250070913e+00 1.338724906020e+00 1.348354231428e+00 1.358127213938e+00 1.367995425664e+00 1.377946404693e+00 1.387928459992e+00 1.397927811601e+00 1.407890233942e+00 1.417801039562e+00 1.427604325403e+00 1.437284996366e+00 1.446786437389e+00 1.456093717226e+00 1.465150555008e+00 1.473942802713e+00 1.482415606367e+00 1.490556239275e+00 1.498312373827e+00 1.505673328098e+00 1.512590363631e+00 1.519055416321e+00 1.525024317854e+00 1.530492108171e+00 1.535420043427e+00 1.539806631644e+00 1.543619238599e+00 1.546860049831e+00 1.549503018843e+00 1.551554036568e+00 1.552993886179e+00 1.553831997074e+00 1.554055993183e+00 1.553678608523e+00 1.552694379319e+00 1.551119105913e+00 1.548953866196e+00 1.546216921902e+00 1.542915423267e+00 1.539069550009e+00 1.534692002115e+00 1.529804325894e+00 1.524424180261e+00 1.518573921843e+00 1.512275522666e+00 1.505551604101e+00 1.498427771516e+00 1.490926394109e+00 1.483076019764e+00 1.474898294623e+00 1.466424029488e+00 1.457673737537e+00 1.448679843991e+00 1.439461391365e+00 1.430051818196e+00 1.420468437810e+00 1.410745160581e+00 1.400897393915e+00 1.390959046190e+00 1.380943522566e+00 1.370884327289e+00 1.360792842491e+00 1.350701838372e+00 1.340620721199e+00 1.330581266994e+00 1.320591011741e+00 1.310680542187e+00 1.300855677306e+00 1.291145678094e+00 1.281554836295e+00 1.272111001770e+00 1.262817154275e+00 1.253699690107e+00 1.244760507274e+00 1.236024540703e+00 1.227492842352e+00 1.219188904329e+00 1.211113165254e+00 1.203287711370e+00 1.195712590420e+00 1.188408530553e+00 1.181375394719e+00 1.174632604448e+00 1.168180022456e+00 1.162035812129e+00 1.156199994686e+00 1.150689514479e+00 1.145504680390e+00 1.140661241380e+00 1.136159890127e+00 1.132015182396e+00 1.128228254398e+00 1.124812443596e+00 1.121769349737e+00 1.119111034141e+00 1.116839537564e+00 1.114965550747e+00 1.113491490081e+00 1.112426545987e+00 1.111773411063e+00 1.111539630506e+00 1.111728093208e+00 1.112344612484e+00 1.113392157986e+00 1.114874525605e+00 1.116794451627e+00 1.119153377539e+00 1.121953501792e+00 1.125193581598e+00 1.128874968152e+00 1.132993408693e+00 1.137549100232e+00 1.142534473240e+00 1.147948281265e+00 1.153779368447e+00 1.160024789412e+00 1.166669587483e+00 1.173708910934e+00 1.181123857731e+00 1.188907520846e+00 1.197036988792e+00 1.205503214731e+00 1.214279299933e+00 1.223354039575e+00 1.232696658219e+00 1.242293840405e+00 1.252111132598e+00 1.262133219860e+00 1.272322256430e+00 1.282661101955e+00 1.293108891525e+00 1.303646897213e+00 1.314231696409e+00 1.324843277870e+00 1.335436212928e+00 1.345989581102e+00 1.356456590492e+00 1.366815857607e+00 1.377019959511e+00 1.387047567222e+00 1.396851441589e+00 1.406410890862e+00 1.415679743728e+00 1.424638580773e+00 1.433243230752e+00 1.441476213781e+00 1.449296310199e+00 1.456688651414e+00 1.463615904178e+00 1.470066453690e+00 1.476007729683e+00 1.481431945750e+00 1.486312067295e+00 1.490644600769e+00 1.494408667155e+00 1.497605373675e+00 1.500220409718e+00 1.502259579185e+00 1.503715277372e+00 1.504597810525e+00 1.504906041202e+00 1.504654174881e+00 1.503846866748e+00 1.502501431039e+00 1.500627712326e+00 1.498245530309e+00 1.495369358984e+00 1.492020907048e+00 1.488218638034e+00 1.483985491480e+00 1.479343215823e+00 1.474315308132e+00 1.468926064622e+00 1.463198884039e+00 1.457159875731e+00 1.450831732618e+00 1.444241676628e+00 1.437411160929e+00 1.430367878937e+00 1.423131601517e+00 1.415729929977e+00 1.408180611678e+00 1.400510680364e+00 1.392735622694e+00 1.384881521447e+00 1.376961465762e+00 1.369000294422e+00 1.361008654093e+00 1.353009930888e+00 1.345012363964e+00 1.337037753495e+00 1.329092032027e+00 1.321195345230e+00 1.313351471137e+00 1.305578885687e+00 1.297879401198e+00 1.290269850802e+00 1.282750293138e+00 1.275335977199e+00 1.268025431323e+00 1.260832401537e+00 1.253754110579e+00 1.246802897341e+00 1.239974896925e+00 1.233281145173e+00 1.226716894682e+00 1.220291985546e+00 1.214000975848e+00 1.207852616647e+00 1.201840939653e+00 1.195973710275e+00 1.190244580741e+00 1.184660428995e+00 1.179214653096e+00 1.173913335308e+00 1.168749723750e+00 1.163729189699e+00 1.158844915565e+00 1.154101638921e+00 1.149492542191e+00 1.145021799063e+00 1.140682640921e+00 1.136478740051e+00 1.132403410846e+00 1.128459879594e+00 1.124641564740e+00 1.120951295261e+00 1.117382603585e+00 1.113937963759e+00 1.110611022798e+00 1.107403936376e+00 1.104310459105e+00 1.101332459569e+00 1.098463786968e+00 1.095706049338e+00 1.093053172850e+00 1.090506527413e+00 1.088060095336e+00 1.085715027359e+00 1.083465339026e+00 1.081311977975e+00 1.079248969006e+00 1.077277070570e+00 1.075390292991e+00 1.073589218390e+00 1.071867819473e+00 1.070226512469e+00 1.068659208927e+00 1.067166169853e+00 1.065741227533e+00 1.064384501169e+00 1.063089726583e+00 1.061856891841e+00 1.060679620875e+00 1.059557784134e+00 1.058484883198e+00 1.057460686327e+00 1.056478565573e+00 1.055538204540e+00 1.054632842805e+00 1.053762099623e+00 1.052919083734e+00 1.052103373636e+00 1.051307953952e+00 1.050532389815e+00 1.049769554019e+00 1.049019030116e+00 1.048273597606e+00 1.047532895322e+00 1.046789635001e+00 1.046043553483e+00 1.045287328210e+00 1.044520843585e+00 1.043736785295e+00 1.042935242840e+00 1.042108963103e+00 1.041258307512e+00 1.040376149083e+00 1.039463198875e+00 1.038512534722e+00 1.037525307612e+00 1.036494894612e+00 1.035422991478e+00 1.034303386772e+00 1.033138442502e+00 1.031922491103e+00 1.030658701187e+00 1.029342103891e+00 1.027976835912e+00 1.026558806604e+00 1.025093305462e+00 1.023577326177e+00 1.022017520633e+00 1.020412200803e+00 1.018769616202e+00 1.017089658881e+00 1.015382436231e+00 1.013649708357e+00 1.011903723632e+00 1.010148423917e+00 1.008398521624e+00 1.006660605405e+00 1.004952983859e+00 1.003290032215e+00 1.001721932232e+00 1.000000000000e+00 1.000000000000e+00 1.000000000000e+00 1.000000000000e+00 
1.000000000000e+00 1.000082296954e+00 1.000328601039e+00 1.000740584024e+00 1.001317616985e+00 1.002061651996e+00 1.002972271276e+00 1.004051662506e+00 1.005299601896e+00 1.006718485626e+00 1.008308237541e+00 1.010071420363e+00 1.012008046613e+00 1.014120791258e+00 1.016409684053e+00 1.018877445485e+00 1.021524038650e+00 1.024352150577e+00 1.027361581768e+00 1.030554895189e+00 1.033931621634e+00 1.037494098922e+00 1.041241471335e+00 1.045175741785e+00 1.049295543759e+00 1.053602429431e+00 1.058094392806e+00 1.062772416937e+00 1.067633727288e+00 1.072678621346e+00 1.077903431620e+00 1.083307660988e+00 1.088886635156e+00 1.094638967065e+00 1.100558879017e+00 1.106644019322e+00 1.112887434611e+00 1.119285761648e+00 1.125830830531e+00 1.132518254170e+00 1.139338643092e+00 1.146286614534e+00 1.153351599345e+00 1.160527291932e+00 1.167802029339e+00 1.175168702444e+00 1.182614686646e+00 1.190132233827e+00 1.197707933274e+00 1.205333603023e+00 1.212995258773e+00 1.220684522403e+00 1.228387075831e+00 1.236094603816e+00 1.243792709108e+00 1.251473406165e+00 1.259122473674e+00 1.266732515540e+00 1.274289727102e+00 1.281787539605e+00 1.289212777269e+00 1.296559901364e+00 1.303816536800e+00 1.310978331654e+00 1.318033834216e+00 1.324979983147e+00 1.331806318920e+00 1.338511118455e+00 1.345084928718e+00 1.351527357359e+00 1.357829920932e+00 1.363993499507e+00 1.370010497586e+00 1.375882965711e+00 1.381604078772e+00 1.387176921072e+00 1.392595294524e+00 1.397863155381e+00 1.402974773870e+00 1.407934800859e+00 1.412737810882e+00 1.417388965392e+00 1.421882982994e+00 1.426225352712e+00 1.430410788502e+00 1.434444931340e+00 1.438322359690e+00 1.442048703318e+00 1.445618297198e+00 1.449036613078e+00 1.452297661017e+00 1.455406627166e+00 1.458357144488e+00 1.461154007280e+00 1.463790450185e+00 1.466270792155e+00 1.468587880172e+00 1.470745497989e+00 1.472736147620e+00 1.474563041783e+00 1.476218411578e+00 1.477704886698e+00 1.479014531250e+00 1.480149402885e+00 1.481101529995e+00 1.481872430484e+00 1.482454251973e+00 1.482848023544e+00 1.483046186258e+00 1.483049349871e+00 1.482850451453e+00 1.482449793655e+00 1.481841042166e+00 1.481024299533e+00 1.479994167542e+00 1.478750649925e+00 1.477289491769e+00 1.475610704795e+00 1.473711377921e+00 1.471591636074e+00 1.469250098051e+00 1.466687100854e+00 1.463902958037e+00 1.460898306407e+00 1.457675291938e+00 1.454234924037e+00 1.450581286605e+00 1.446715816547e+00 1.442644605533e+00 1.438369553153e+00 1.433898790545e+00 1.429234694253e+00 1.424387427772e+00 1.419359839938e+00 1.414164083778e+00 1.408803458177e+00 1.403292024156e+00 1.397633489048e+00 1.391843708497e+00 1.385926750072e+00 1.379900125339e+00 1.373768200204e+00 1.367549976966e+00 1.361250056082e+00 1.354888747883e+00 1.348470822245e+00 1.342017700942e+00 1.335534261170e+00 1.329042830558e+00 1.322548337628e+00 1.316073805320e+00 1.309624166236e+00 1.303222926679e+00 1.296874986676e+00 1.290604125284e+00 1.284415185054e+00 1.278332010529e+00 1.272359374013e+00 1.266520982748e+00 1.260821537796e+00 1.255284411297e+00 1.249914242795e+00 1.244733876234e+00 1.239747908401e+00 1.234978465669e+00 1.230430127570e+00 1.226124115811e+00 1.222065021840e+00 1.218272975725e+00 1.214752610087e+00 1.211522773786e+00 1.208588165434e+00 1.205966157048e+00 1.203661528235e+00 1.201689968362e+00 1.200056337071e+00 1.198774421078e+00 1.197849138731e+00 1.197292142759e+00 1.197108381574e+00 1.197307170883e+00 1.197893505117e+00 1.198874183062e+00 1.200254177190e+00 1.202037479326e+00 1.204228892543e+00 1.206829296540e+00 1.209843153694e+00 1.213267924306e+00 1.217107533315e+00 1.221355715635e+00 1.226015638760e+00 1.231077016209e+00 1.236542022254e+00 1.242396076650e+00 1.248640120133e+00 1.255255043496e+00 1.262240317745e+00 1.269572122841e+00 1.277248251609e+00 1.285240074755e+00 1.293543541430e+00 1.302125201368e+00 1.310979045002e+00 1.320066904740e+00 1.329380780227e+00 1.338878019224e+00 1.348548683528e+00 1.358346008151e+00 1.368258270486e+00 1.378235110807e+00 1.388263280544e+00 1.398289488517e+00 1.408299323141e+00 1.418237362172e+00 1.428088491334e+00 1.437796078750e+00 1.447344850892e+00 1.456677984387e+00 1.465780651989e+00 1.474596922405e+00 1.483113055532e+00 1.491275123466e+00 1.499071117482e+00 1.506450209915e+00 1.513402735928e+00 1.519882005493e+00 1.525881241738e+00 1.531358824509e+00 1.536311304022e+00 1.540702912735e+00 1.544533827553e+00 1.547774725972e+00 1.550429541532e+00 1.552475765184e+00 1.553921027497e+00 1.554749763837e+00 1.554973073614e+00 1.554582312624e+00 1.553591789396e+00 1.551999604881e+00 1.549822810638e+00 1.547065843602e+00 1.543747962816e+00 1.539879447390e+00 1.535481214444e+00 1.530568819774e+00 1.525164279448e+00 1.519287796738e+00 1.512961929557e+00 1.506210854677e+00 1.499057134470e+00 1.491528223311e+00 1.483646188623e+00 1.475441067766e+00 1.466933988373e+00 1.458156898967e+00 1.449129610447e+00 1.439885351796e+00 1.430442317311e+00 1.420834441181e+00 1.411078083060e+00 1.401207372585e+00 1.391236699012e+00 1.381199949031e+00 1.371109484688e+00 1.360998584727e+00 1.350877599641e+00 1.340778907386e+00 1.330710926199e+00 1.320704908685e+00 1.310767473394e+00 1.300928585435e+00 1.291193238353e+00 1.281590002808e+00 1.272122452866e+00 1.262817704935e+00 1.253678139088e+00 1.244729396429e+00 1.235972898425e+00 1.227432820147e+00 1.219109860715e+00 1.211026760574e+00 1.203183725790e+00 1.195602107907e+00 1.188281835594e+00 1.181242924187e+00 1.174485221413e+00 1.168027459157e+00 1.161869576823e+00 1.156029069188e+00 1.150506112182e+00 1.145316997248e+00 1.140462250439e+00 1.135956975111e+00 1.131802126495e+00 1.128011610776e+00 1.124586853621e+00 1.121540525060e+00 1.118874521645e+00 1.116600203735e+00 1.114719896786e+00 1.113243541961e+00 1.112173812783e+00 1.111519094087e+00 1.111282307303e+00 1.111470147458e+00 1.112085684990e+00 1.113133741156e+00 1.114617305944e+00 1.116539012531e+00 1.118901468531e+00 1.121704785041e+00 1.124950874449e+00 1.128636990977e+00 1.132764036186e+00 1.137326084359e+00 1.142322721506e+00 1.147744548379e+00 1.153589558168e+00 1.159844632886e+00 1.166505938929e+00 1.173556459602e+00 1.180990356408e+00 1.188786611895e+00 1.196937268330e+00 1.205417290978e+00 1.214216555388e+00 1.223306081443e+00 1.232673596712e+00 1.242286335670e+00 1.252129960398e+00 1.262168166339e+00 1.272384694066e+00 1.282740031581e+00 1.293216202935e+00 1.303770905831e+00 1.314384715670e+00 1.325013044387e+00 1.335635353155e+00 1.346205362276e+00 1.356701823564e+00 1.367077450081e+00 1.377310761532e+00 1.387354235249e+00 1.397186706131e+00 1.406761265337e+00 1.416057671811e+00 1.425030541638e+00 1.433661212265e+00 1.441906772741e+00 1.449750815417e+00 1.457153854850e+00 1.464102405850e+00 1.470561326494e+00 1.476520676221e+00 1.481950496166e+00 1.486844926547e+00 1.491179905412e+00 1.494954060015e+00 1.498149762912e+00 1.500770355566e+00 1.502804947445e+00 1.504261577736e+00 1.505136075209e+00 1.505440807864e+00 1.505177830464e+00 1.504362988460e+00 1.503003791700e+00 1.501118894269e+00 1.498720743427e+00 1.495830213758e+00 1.492464088730e+00 1.488644820163e+00 1.484392843927e+00 1.479731512945e+00 1.474684180670e+00 1.469274425657e+00 1.463527769891e+00 1.457467376456e+00 1.451120207277e+00 1.444508432194e+00 1.437659774052e+00 1.430594916783e+00 1.423341736535e+00 1.415919037589e+00 1.408354327339e+00 1.400664241572e+00 1.392875489325e+00 1.385002353014e+00 1.377070406803e+00 1.369091492230e+00 1.361089800810e+00 1.353074732338e+00 1.345068928654e+00 1.337079420175e+00 1.329127202548e+00 1.321217067677e+00 1.313368327617e+00 1.305583710230e+00 1.297880854166e+00 1.290260627156e+00 1.282739041228e+00 1.275315324559e+00 1.268003936009e+00 1.260802690442e+00 1.253724585084e+00 1.246766244373e+00 1.239939306387e+00 1.233239417654e+00 1.226676964843e+00 1.220246813596e+00 1.213958207796e+00 1.207805410313e+00 1.201796628535e+00 1.195925679803e+00 1.190199836721e+00 1.184612606699e+00 1.179170423212e+00 1.173866597846e+00 1.168706813650e+00 1.163684279868e+00 1.158804010404e+00 1.154059186351e+00 1.149454226180e+00 1.144982339384e+00 1.140647415215e+00 1.136442732303e+00 1.132371709603e+00 1.128427721718e+00 1.124613769257e+00 1.120923337635e+00 1.117359054507e+00 1.113914520783e+00 1.110592030441e+00 1.107385296171e+00 1.104296311969e+00 1.101318891850e+00 1.098454758498e+00 1.095697811547e+00 1.093049526575e+00 1.090503869264e+00 1.088062088508e+00 1.085718193897e+00 1.083473224891e+00 1.081321211341e+00 1.079262998000e+00 1.077292610837e+00 1.075410712734e+00 1.073611301806e+00 1.071894870380e+00 1.070255365881e+00 1.068693121628e+00 1.067202014291e+00 1.065782229255e+00 1.064427552516e+00 1.063138031942e+00 1.061907347420e+00 1.060735423164e+00 1.059615820616e+00 1.058548353928e+00 1.057526456615e+00 1.056549849071e+00 1.055611831852e+00 1.054712050337e+00 1.053843671368e+00 1.053006287068e+00 1.052192934620e+00 1.051403178156e+00 1.050629934526e+00 1.049872769185e+00 1.049124493849e+00 1.048384709303e+00 1.047646143893e+00 1.046908473165e+00 1.046164371268e+00 1.045413634233e+00 1.044648919633e+00 1.043870197031e+00 1.043070154716e+00 1.042248997392e+00 1.041399502489e+00 1.040522181461e+00 1.039609972077e+00 1.038663775785e+00 1.037676776558e+00 1.036650362551e+00 1.035578066500e+00 1.034461875498e+00 1.033295792524e+00 1.032082533535e+00 1.030816714513e+00 1.029501930210e+00 1.028133576002e+00 1.026716297662e+00 1.025246462181e+00 1.023729962885e+00 1.022164358163e+00 1.020557011139e+00 1.018906919774e+00 1.017223165232e+00 1.015506461017e+00 1.013767879231e+00 1.012010150585e+00 1.010246635701e+00 1.008482427337e+00 1.006733625086e+00 1.005008851700e+00 1.003332130778e+00 1.001744260261e+00 1.000000000000e+00 1.000000000000e+00 1.000000000000e+00 1.000000000000e+00 