# vtk DataFile Version 3.0
Vortex Output
ASCII
DATASET STRUCTURED_POINTS
FIELD FieldData 2
TIME 1 1 double
5.000000
CYCLE 1 1 int
2000
DIMENSIONS 514 130 1
ORIGIN 0 0 0
SPACING 1 1 1
POINT_DATA 66820
SCALARS u double 1
LOOKUP_TABLE default
1.000081879893e+00 1.000081879893e+00 1.000328913600e+00 1.000740474355e+00 1.001318384842e+00 1.002062113477e+00 1.002973731317e+00 1.004052914875e+00 1.005301954337e+00 1.006720694296e+00 1.008311609397e+00 1.010074660481e+00 1.012012459171e+00 1.014125017802e+00 1.016415024742e+00 1.018882466382e+00 1.021530035146e+00 1.024357601740e+00 1.027367778020e+00 1.030560217693e+00 1.033937356431e+00 1.037498519264e+00 1.041245860566e+00 1.045178256528e+00 1.049297467846e+00 1.053601795871e+00 1.058092491050e+00 1.062767151627e+00 1.067626401032e+00 1.072667008383e+00 1.077888858111e+00 1.083287771886e+00 1.088862793797e+00 1.094608693717e+00 1.100523591268e+00 1.106601120975e+00 1.112838418052e+00 1.119227925951e+00 1.125765766635e+00 1.132443171227e+00 1.139255256972e+00 1.146192061569e+00 1.153247748381e+00 1.160411224732e+00 1.167675796156e+00 1.175029348410e+00 1.182464470689e+00 1.189968180404e+00 1.197532534403e+00 1.205143874728e+00 1.212793946042e+00 1.220468639764e+00 1.228159635146e+00 1.235852618487e+00 1.243539464752e+00 1.251205908129e+00 1.258844280711e+00 1.266440610648e+00 1.273987934224e+00 1.281472798363e+00 1.288889162337e+00 1.296224282530e+00 1.303473219852e+00 1.310624086494e+00 1.317673174687e+00 1.324609547761e+00 1.331430804920e+00 1.338127002252e+00 1.344697066430e+00 1.351132035488e+00 1.357432131491e+00 1.363589315956e+00 1.369605027374e+00 1.375472052159e+00 1.381192927256e+00 1.386761134611e+00 1.392180161813e+00 1.397444036373e+00 1.402557028384e+00 1.407513550531e+00 1.412318476086e+00 1.416966441579e+00 1.421462741177e+00 1.425802081380e+00 1.429989999028e+00 1.434021131212e+00 1.437901089011e+00 1.441624320906e+00 1.445196358049e+00 1.448611365663e+00 1.451874658478e+00 1.454980051581e+00 1.457932526955e+00 1.460725512671e+00 1.463363563573e+00 1.465839715165e+00 1.468158023857e+00 1.470311158920e+00 1.472302630746e+00 1.474124800331e+00 1.475780608258e+00 1.477262195743e+00 1.478571933012e+00 1.479701858493e+00 1.480653793381e+00 1.481419815523e+00 1.482001237622e+00 1.482390338984e+00 1.482587978111e+00 1.482586810102e+00 1.482387330567e+00 1.481982823234e+00 1.481373552923e+00 1.480553635028e+00 1.479523188195e+00 1.478277361732e+00 1.476816231755e+00 1.475136185694e+00 1.473237362105e+00 1.471117579452e+00 1.468777139874e+00 1.466215468329e+00 1.463433122916e+00 1.460431286342e+00 1.457210851943e+00 1.453774881910e+00 1.450124667742e+00 1.446265239107e+00 1.442198329868e+00 1.437930988531e+00 1.433465415580e+00 1.428810691672e+00 1.423969488188e+00 1.418952893243e+00 1.413764034484e+00 1.408415946237e+00 1.402912180982e+00 1.397267624110e+00 1.391486207622e+00 1.385584542593e+00 1.379566884859e+00 1.373451419926e+00 1.367242665257e+00 1.360960208432e+00 1.354608763733e+00 1.348209132242e+00 1.341766161406e+00 1.335301665773e+00 1.328820566840e+00 1.322345485477e+00 1.315881365529e+00 1.309451423744e+00 1.303060584229e+00 1.296732449003e+00 1.290471891474e+00 1.284302690526e+00 1.278229649792e+00 1.272276520408e+00 1.266448029051e+00 1.260767699116e+00 1.255240184355e+00 1.249888585120e+00 1.244717496126e+00 1.239749403485e+00 1.234988864598e+00 1.230457563031e+00 1.226160045769e+00 1.222117006577e+00 1.218333010779e+00 1.214827573681e+00 1.211605305445e+00 1.208684349701e+00 1.206069380669e+00 1.203776968518e+00 1.201811857261e+00 1.200188828293e+00 1.198912680612e+00 1.197996173699e+00 1.197444123673e+00 1.197267030413e+00 1.197469725422e+00 1.198060329920e+00 1.199043729900e+00 1.200425399913e+00 1.202210120472e+00 1.204400406463e+00 1.207000773866e+00 1.210010472909e+00 1.213433574455e+00 1.217265758729e+00 1.221510446389e+00 1.226159447651e+00 1.231215308291e+00 1.236665684717e+00 1.242512012504e+00 1.248737540870e+00 1.255342361334e+00 1.262305109690e+00 1.269624315611e+00 1.277273860821e+00 1.285250527761e+00 1.293523388150e+00 1.302087341344e+00 1.310906696434e+00 1.319974400128e+00 1.329250166321e+00 1.338725000914e+00 1.348354323525e+00 1.358127304633e+00 1.367995512709e+00 1.377946489587e+00 1.387928540622e+00 1.397927889602e+00 1.407890307347e+00 1.417801110125e+00 1.427604391258e+00 1.437285059274e+00 1.446786495455e+00 1.456093772120e+00 1.465150604785e+00 1.473942848980e+00 1.482415647190e+00 1.490556276229e+00 1.498312405018e+00 1.505673355082e+00 1.512590384583e+00 1.519055432798e+00 1.525024328129e+00 1.530492113816e+00 1.535420042839e+00 1.539806626414e+00 1.543619227257e+00 1.546860033978e+00 1.549502997136e+00 1.551554010595e+00 1.552993854718e+00 1.553831961677e+00 1.554055952737e+00 1.553678564534e+00 1.552694330778e+00 1.551119054268e+00 1.548953810539e+00 1.546216863611e+00 1.542915361529e+00 1.539069486130e+00 1.534691935367e+00 1.529804257508e+00 1.524424109589e+00 1.518573850042e+00 1.512275449166e+00 1.505551529985e+00 1.498427696294e+00 1.490926318796e+00 1.483075943943e+00 1.474898219245e+00 1.466423954206e+00 1.457673663236e+00 1.448679770382e+00 1.439461319263e+00 1.430051747361e+00 1.420468368978e+00 1.410745093546e+00 1.400897329328e+00 1.390958983873e+00 1.380943463080e+00 1.370884270484e+00 1.360792788840e+00 1.350701787752e+00 1.340620673999e+00 1.330581223131e+00 1.320590971520e+00 1.310680505577e+00 1.300855644528e+00 1.291145649180e+00 1.281554811383e+00 1.272110980967e+00 1.262817137632e+00 1.253699677818e+00 1.244760499298e+00 1.236024537330e+00 1.227492843440e+00 1.219188910272e+00 1.211113175805e+00 1.203287727029e+00 1.195712610832e+00 1.188408556329e+00 1.181375425390e+00 1.174632640731e+00 1.168180063780e+00 1.162035859302e+00 1.156200047046e+00 1.150689572909e+00 1.145504744156e+00 1.140661311408e+00 1.136159965648e+00 1.132015264332e+00 1.128228341992e+00 1.124812537706e+00 1.121769449680e+00 1.119111140630e+00 1.116839650073e+00 1.114965669750e+00 1.113491615305e+00 1.112426677552e+00 1.111773549067e+00 1.111539774586e+00 1.111728243978e+00 1.112344768950e+00 1.113392321447e+00 1.114874694285e+00 1.116794627716e+00 1.119153558352e+00 1.121953690710e+00 1.125193775036e+00 1.128875171332e+00 1.132993617964e+00 1.137549325716e+00 1.142534719619e+00 1.147948592207e+00 1.153779839119e+00 1.160024019170e+00 1.166669829091e+00 1.173709082428e+00 1.181124013138e+00 1.188907679319e+00 1.197037145401e+00 1.205503375907e+00 1.214279457538e+00 1.223354199738e+00 1.232696812661e+00 1.242293995441e+00 1.252111279993e+00 1.262133365957e+00 1.272322393095e+00 1.282661235416e+00 1.293109013833e+00 1.303647014381e+00 1.314231800763e+00 1.324843375141e+00 1.335436295809e+00 1.345989654993e+00 1.356456648543e+00 1.366815905096e+00 1.377019990577e+00 1.387047588150e+00 1.396851443716e+00 1.406410883055e+00 1.415679709160e+00 1.424638513100e+00 1.433243150242e+00 1.441476126209e+00 1.449296214196e+00 1.456688547943e+00 1.463615786089e+00 1.470066318152e+00 1.476007565980e+00 1.481431750573e+00 1.486311851643e+00 1.490644406972e+00 1.494408458461e+00 1.497605120785e+00 1.500220138381e+00 1.502259294413e+00 1.503714979074e+00 1.504597501831e+00 1.504905722333e+00 1.504653845873e+00 1.503846529335e+00 1.502501085299e+00 1.500627360634e+00 1.498245172290e+00 1.495368997369e+00 1.492020540536e+00 1.488218270624e+00 1.483985120443e+00 1.479342846228e+00 1.474314938219e+00 1.468925698888e+00 1.463198520477e+00 1.457159512353e+00 1.450831367911e+00 1.444241317353e+00 1.437410800206e+00 1.430367498314e+00 1.423131154996e+00 1.415729536929e+00 1.408180324982e+00 1.400510391164e+00 1.392735315691e+00 1.384881222263e+00 1.376961176618e+00 1.369000022678e+00 1.361008385394e+00 1.353009670010e+00 1.345012110499e+00 1.337037510788e+00 1.329091798180e+00 1.321195122118e+00 1.313351254861e+00 1.305578679925e+00 1.297879201635e+00 1.290269661230e+00 1.282750109616e+00 1.275335803317e+00 1.268025263207e+00 1.260832241880e+00 1.253753955870e+00 1.246802752353e+00 1.239974755798e+00 1.233281009536e+00 1.226716762731e+00 1.220291867664e+00 1.214000868977e+00 1.207852511611e+00 1.201840824934e+00 1.195973582406e+00 1.190244480707e+00 1.184660408717e+00 1.179214616600e+00 1.173913245836e+00 1.168749642287e+00 1.163729119457e+00 1.158844852615e+00 1.154101579689e+00 1.149492480891e+00 1.145021741954e+00 1.140682587670e+00 1.136478690607e+00 1.132403363916e+00 1.128459835719e+00 1.124641524040e+00 1.120951257525e+00 1.117382568286e+00 1.113937931128e+00 1.110610992357e+00 1.107403908314e+00 1.104310433140e+00 1.101332436254e+00 1.098463765866e+00 1.095706029622e+00 1.093053155128e+00 1.090506511884e+00 1.088060081952e+00 1.085715015465e+00 1.083465328867e+00 1.081311969177e+00 1.079248962289e+00 1.077277065690e+00 1.075390290433e+00 1.073589217351e+00 1.071867819996e+00 1.070226513505e+00 1.068659210666e+00 1.067166171378e+00 1.065741229290e+00 1.064384502399e+00 1.063089728072e+00 1.061856893901e+00 1.060679624945e+00 1.059557789188e+00 1.058484888911e+00 1.057460692297e+00 1.056478573047e+00 1.055538212238e+00 1.054632851374e+00 1.053762108260e+00 1.052919093083e+00 1.052103382810e+00 1.051307963652e+00 1.050532399300e+00 1.049769563907e+00 1.049019040590e+00 1.048273608825e+00 1.047532904919e+00 1.046789644470e+00 1.046043563007e+00 1.045287337875e+00 1.044520850889e+00 1.043736789108e+00 1.042935242206e+00 1.042108963284e+00 1.041258323018e+00 1.040376177186e+00 1.039463223718e+00 1.038512552340e+00 1.037525317273e+00 1.036494903881e+00 1.035422999615e+00 1.034303395007e+00 1.033138449338e+00 1.031922497269e+00 1.030658706263e+00 1.029342109606e+00 1.027976840797e+00 1.026558811342e+00 1.025093309318e+00 1.023577330189e+00 1.022017523783e+00 1.020412204239e+00 1.018769618780e+00 1.017089661768e+00 1.015382438261e+00 1.013649710734e+00 1.011903725176e+00 1.010148425852e+00 1.008398522744e+00 1.006660606936e+00 1.004952984572e+00 1.003290033338e+00 1.001721932520e+00 1.000000000000e+00 1.000000000000e+00 1.000000000000e+00 1.000000000000e+00 
1.000000000000e+00 1.000081879893e+00 1.000328913600e+00 1.000740474355e+00 1.001318384842e+00 1.002062113477e+00 1.002973731317e+00 1.004052914875e+00 1.005301954337e+00 1.006720694296e+00 1.008311609397e+00 1.010074660481e+00 1.012012459171e+00 1.014125017802e+00 1.016415024742e+00 1.018882466382e+00 1.021530035146e+00 1.024357601740e+00 1.027367778020e+00 1.030560217693e+00 1.033937356431e+00 1.037498519264e+00 1.041245860566e+00 1.045178256528e+00 1.049297467846e+00 1.053601795871e+00 1.058092491050e+00 1.062767151627e+00 1.067626401032e+00 1.072667008383e+00 1.077888858111e+00 1.083287771886e+00 1.088862793797e+00 1.094608693717e+00 1.100523591268e+00 1.106601120975e+00 1.112838418052e+00 1.119227925951e+00 1.125765766635e+00 1.132443171227e+00 1.139255256972e+00 1.146192061569e+00 1.153247748381e+00 1.160411224732e+00 1.167675796156e+00 1.175029348410e+00 1.182464470689e+00 1.189968180404e+00 1.197532534403e+00 1.205143874728e+00 1.212793946042e+00 1.220468639764e+00 1.228159635146e+00 1.235852618487e+00 1.243539464752e+00 1.251205908129e+00 1.258844280711e+00 1.266440610648e+00 1.273987934224e+00 1.281472798363e+00 1.288889162337e+00 1.296224282530e+00 1.303473219852e+00 1.310624086494e+00 1.317673174687e+00 1.324609547761e+00 1.331430804920e+00 1.338127002252e+00 1.344697066430e+00 1.351132035488e+00 1.357432131491e+00 1.363589315956e+00 1.369605027374e+00 1.375472052159e+00 1.381192927256e+00 1.386761134611e+00 1.392180161813e+00 1.397444036373e+00 1.402557028384e+00 1.407513550531e+00 1.412318476086e+00 1.416966441579e+00 1.421462741177e+00 1.425802081380e+00 1.429989999028e+00 1.434021131212e+00 1.437901089011e+00 1.441624320906e+00 1.445196358049e+00 1.448611365663e+00 1.451874658478e+00 1.454980051581e+00 1.457932526955e+00 1.460725512671e+00 1.463363563573e+00 1.465839715165e+00 1.468158023857e+00 1.470311158920e+00 1.472302630746e+00 1.474124800331e+00 1.475780608258e+00 1.477262195743e+00 1.478571933012e+00 1.479701858493e+00 1.480653793381e+00 1.481419815523e+00 1.482001237622e+00 1.482390338984e+00 1.482587978111e+00 1.482586810102e+00 1.482387330567e+00 1.481982823234e+00 1.481373552923e+00 1.480553635028e+00 1.479523188195e+00 1.478277361732e+00 1.476816231755e+00 1.475136185694e+00 1.473237362105e+00 1.471117579452e+00 1.468777139874e+00 1.466215468329e+00 1.463433122916e+00 1.460431286342e+00 1.457210851943e+00 1.453774881910e+00 1.450124667742e+00 1.446265239107e+00 1.442198329868e+00 1.437930988531e+00 1.433465415580e+00 1.428810691672e+00 1.423969488188e+00 1.418952893243e+00 1.413764034484e+00 1.408415946237e+00 1.402912180982e+00 1.397267624110e+00 1.391486207622e+00 1.385584542593e+00 1.379566884859e+00 1.373451419926e+00 1.367242665257e+00 1.360960208432e+00 1.354608763733e+00 1.348209132242e+00 1.341766161406e+00 1.335301665773e+00 1.328820566840e+00 1.322345485477e+00 1.315881365529e+00 1.309451423744e+00 1.303060584229e+00 1.296732449003e+00 1.290471891474e+00 1.284302690526e+00 1.278229649792e+00 1.272276520408e+00 1.266448029051e+00 1.260767699116e+00 1.255240184355e+00 1.249888585120e+00 1.244717496126e+00 1.239749403485e+00 1.234988864598e+00 1.230457563031e+00 1.226160045769e+00 1.222117006577e+00 1.218333010779e+00 1.214827573681e+00 1.211605305445e+00 1.208684349701e+00 1.206069380669e+00 1.203776968518e+00 1.201811857261e+00 1.200188828293e+00 1.198912680612e+00 1.197996173699e+00 1.197444123673e+00 1.197267030413e+00 1.197469725422e+00 1.198060329920e+00 1.199043729900e+00 1.200425399913e+00 1.202210120472e+00 1.204400406463e+00 1.207000773866e+00 1.210010472909e+00 1.213433574455e+00 1.217265758729e+00 1.221510446389e+00 1.226159447651e+00 1.231215308291e+00 1.236665684717e+00 1.242512012504e+00 1.248737540870e+00 1.255342361334e+00 1.262305109690e+00 1.269624315611e+00 1.277273860821e+00 1.285250527761e+00 1.293523388150e+00 1.302087341344e+00 1.310906696434e+00 1.319974400128e+00 1.329250166321e+00 1.338725000914e+00 1.348354323525e+00 1.358127304633e+00 1.367995512709e+00 1.377946489587e+00 1.387928540622e+00 1.397927889602e+00 1.407890307347e+00 1.417801110125e+00 1.427604391258e+00 1.437285059274e+00 1.446786495455e+00 1.456093772120e+00 1.465150604785e+00 1.473942848980e+00 1.482415647190e+00 1.490556276229e+00 1.498312405018e+00 1.505673355082e+00 1.512590384583e+00 1.519055432798e+00 1.525024328129e+00 1.530492113816e+00 1.535420042839e+00 1.539806626414e+00 1.543619227257e+00 1.546860033978e+00 1.549502997136e+00 1.551554010595e+00 1.552993854718e+00 1.553831961677e+00 1.554055952737e+00 1.553678564534e+00 1.552694330778e+00 1.551119054268e+00 1.548953810539e+00 1.546216863611e+00 1.542915361529e+00 1.539069486130e+00 1.534691935367e+00 1.529804257508e+00 1.524424109589e+00 1.518573850042e+00 1.512275449166e+00 1.505551529985e+00 1.498427696294e+00 1.490926318796e+00 1.483075943943e+00 1.474898219245e+00 1.466423954206e+00 1.457673663236e+00 1.448679770382e+00 1.439461319263e+00 1.430051747361e+00 1.420468368978e+00 1.410745093546e+00 1.400897329328e+00 1.390958983873e+00 1.380943463080e+00 1.370884270484e+00 1.360792788840e+00 1.350701787752e+00 1.340620673999e+00 1.330581223131e+00 1.320590971520e+00 1.310680505577e+00 1.300855644528e+00 1.291145649180e+00 1.281554811383e+00 1.272110980967e+00 1.262817137632e+00 1.253699677818e+00 1.244760499298e+00 1.236024537330e+00 1.227492843440e+00 1.219188910272e+00 1.211113175805e+00 1.203287727029e+00 1.195712610832e+00 1.188408556329e+00 1.181375425390e+00 1.174632640731e+00 1.168180063780e+00 1.162035859302e+00 1.156200047046e+00 1.150689572909e+00 1.145504744156e+00 1.140661311408e+00 1.136159965648e+00 1.132015264332e+00 1.128228341992e+00 1.124812537706e+00 1.121769449680e+00 1.119111140630e+00 1.116839650073e+00 1.114965669750e+00 1.113491615305e+00 1.112426677552e+00 1.111773549067e+00 1.111539774586e+00 1.111728243978e+00 1.112344768950e+00 1.113392321447e+00 1.114874694285e+00 1.116794627716e+00 1.119153558352e+00 1.121953690710e+00 1.125193775036e+00 1.128875171332e+00 1.132993617964e+00 1.137549325716e+00 1.142534719619e+00 1.147948592207e+00 1.153779839119e+00 1.160024019170e+00 1.166669829091e+00 1.173709082428e+00 1.181124013138e+00 1.188907679319e+00 1.197037145401e+00 1.205503375907e+00 1.214279457538e+00 1.223354199738e+00 1.232696812661e+00 1.242293995441e+00 1.252111279993e+00 1.262133365957e+00 1.272322393095e+00 1.282661235416e+00 1.293109013833e+00 1.303647014381e+00 1.314231800763e+00 1.324843375141e+00 1.335436295809e+00 1.345989654993e+00 1.356456648543e+00 1.366815905096e+00 1.377019990577e+00 1.387047588150e+00 1.396851443716e+00 1.406410883055e+00 1.415679709160e+00 1.424638513100e+00 1.433243150242e+00 1.441476126209e+00 1.449296214196e+00 1.456688547943e+00 1.463615786089e+00 1.470066318152e+00 1.476007565980e+00 1.481431750573e+00 1.486311851643e+00 1.490644406972e+00 1.494408458461e+00 1.497605120785e+00 1.500220138381e+00 1.502259294413e+00 1.503714979074e+00 1.504597501831e+00 1.504905722333e+00 1.504653845873e+00 1.503846529335e+00 1.502501085299e+00 1.500627360634e+00 1.498245172290e+00 1.495368997369e+00 1.492020540536e+00 1.488218270624e+00 1.483985120443e+00 1.479342846228e+00 1.474314938219e+00 1.468925698888e+00 1.463198520477e+00 1.457159512353e+00 1.450831367911e+00 1.444241317353e+00 1.437410800206e+00 1.430367498314e+00 1.423131154996e+00 1.415729536929e+00 1.408180324982e+00 1.400510391164e+00 1.392735315691e+00 1.384881222263e+00 1.376961176618e+00 1.369000022678e+00 1.361008385394e+00 1.353009670010e+00 1.345012110499e+00 1.337037510788e+00 1.329091798180e+00 1.321195122118e+00 1.313351254861e+00 1.305578679925e+00 1.297879201635e+00 1.290269661230e+00 1.282750109616e+00 1.275335803317e+00 1.268025263207e+00 1.260832241880e+00 1.253753955870e+00 1.246802752353e+00 1.239974755798e+00 1.233281009536e+00 1.226716762731e+00 1.220291867664e+00 1.214000868977e+00 1.207852511611e+00 1.201840824934e+00 1.195973582406e+00 1.190244480707e+00 1.184660408717e+00 1.179214616600e+00 1.173913245836e+00 1.168749642287e+00 1.163729119457e+00 1.158844852615e+00 1.154101579689e+00 1.149492480891e+00 1.145021741954e+00 1.140682587670e+00 1.136478690607e+00 1.132403363916e+00 1.128459835719e+00 1.124641524040e+00 1.120951257525e+00 1.117382568286e+00 1.113937931128e+00 1.110610992357e+00 1.107403908314e+00 1.104310433140e+00 1.101332436254e+00 1.098463765866e+00 1.095706029622e+00 1.093053155128e+00 1.090506511884e+00 1.088060081952e+00 1.085715015465e+00 1.083465328867e+00 1.081311969177e+00 1.079248962289e+00 1.077277065690e+00 1.075390290433e+00 1.073589217351e+00 1.071867819996e+00 1.070226513505e+00 1.068659210666e+00 1.067166171378e+00 1.065741229290e+00 1.064384502399e+00 1.063089728072e+00 1.061856893901e+00 1.060679624945e+00 1.059557789188e+00 1.058484888911e+00 1.057460692297e+00 1.056478573047e+00 1.055538212238e+00 1.054632851374e+00 1.053762108260e+00 1.052919093083e+00 1.052103382810e+00 1.051307963652e+00 1.050532399300e+00 1.049769563907e+00 1.049019040590e+00 1.048273608825e+00 1.047532904919e+00 1.046789644470e+00 1.046043563007e+00 1.045287337875e+00 1.044520850889e+00 1.043736789108e+00 1.042935242206e+00 1.042108963284e+00 1.041258323018e+00 1.040376177186e+00 1.039463223718e+00 1.038512552340e+00 1.037525317273e+00 1.036494903881e+00 1.035422999615e+00 1.034303395007e+00 1.033138449338e+00 1.031922497269e+00 1.030658706263e+00 1.029342109606e+00 1.027976840797e+00 1.026558811342e+00 1.025093309318e+00 1.023577330189e+00 1.022017523783e+00 1.020412204239e+00 1.018769618780e+00 1.017089661768e+00 1.015382438261e+00 1.013649710734e+00 1.011903725176e+00 1.010148425852e+00 1.008398522744e+00 1.006660606936e+00 1.004952984572e+00 1.003290033338e+00 1.001721932520e+00 1.000000000000e+00 1.000000000000e+00 1.000000000000e+00 1.000000000000e+00 
1.000000000000e+00 1.000082297174e+00 1.000328600538e+00 1.000740583830e+00 1.001317616118e+00 1.002061651446e+00 1.002972270049e+00 1.004051661589e+00 1.005299600306e+00 1.006718484344e+00 1.008308235595e+00 1.010071418725e+00 1.012008044320e+00 1.014120789270e+00 1.016409681424e+00 1.018877443159e+00 1.021524035701e+00 1.024352147934e+00 1.027361578522e+00 1.030554892249e+00 1.033931618112e+00 1.037494095705e+00 1.041241467556e+00 1.045175738308e+00 1.049295539742e+00 1.053602425711e+00 1.058094388567e+00 1.062772412988e+00 1.067633722842e+00 1.072678617182e+00 1.077903426982e+00 1.083307656624e+00 1.088886630341e+00 1.094638962516e+00 1.100558874042e+00 1.106644014604e+00 1.112887429491e+00 1.119285756777e+00 1.125830825282e+00 1.132518249162e+00 1.139338637731e+00 1.146286609403e+00 1.153351593885e+00 1.160527286694e+00 1.167802023793e+00 1.175168697112e+00 1.182614681025e+00 1.190132228412e+00 1.197707927590e+00 1.205333597538e+00 1.212995253036e+00 1.220684516858e+00 1.228387070046e+00 1.236094598218e+00 1.243792703282e+00 1.251473400520e+00 1.259122467808e+00 1.266732509852e+00 1.274289721197e+00 1.281787533877e+00 1.289212771326e+00 1.296559895598e+00 1.303816530815e+00 1.310978325850e+00 1.318033828189e+00 1.324979977306e+00 1.331806312848e+00 1.338511112577e+00 1.345084922599e+00 1.351527351446e+00 1.357829914766e+00 1.363993493562e+00 1.370010491375e+00 1.375882959737e+00 1.381604072517e+00 1.387176915075e+00 1.392595288231e+00 1.397863149370e+00 1.402974767547e+00 1.407934794844e+00 1.412737804540e+00 1.417388959388e+00 1.421882976649e+00 1.426225346737e+00 1.430410782173e+00 1.434444925416e+00 1.438322353402e+00 1.442048697472e+00 1.445618290981e+00 1.449036607342e+00 1.452297654905e+00 1.455406621577e+00 1.458357138522e+00 1.461154001878e+00 1.463790444414e+00 1.466270786987e+00 1.468587874648e+00 1.470745493107e+00 1.472736142399e+00 1.474563037241e+00 1.476218406722e+00 1.477704882556e+00 1.479014526822e+00 1.480149399204e+00 1.481101526062e+00 1.481872427329e+00 1.482454248602e+00 1.482848020979e+00 1.483046183514e+00 1.483049347965e+00 1.482850449410e+00 1.482449792489e+00 1.481841040905e+00 1.481024299191e+00 1.479994167135e+00 1.478750650479e+00 1.477289492283e+00 1.475610706322e+00 1.473711379427e+00 1.471591638632e+00 1.469250100579e+00 1.466687104469e+00 1.463902961620e+00 1.460898311162e+00 1.457675296686e+00 1.454234930044e+00 1.450581292600e+00 1.446715823818e+00 1.442644612598e+00 1.438369561174e+00 1.433898797839e+00 1.429234702369e+00 1.424387435737e+00 1.419359850175e+00 1.414164094864e+00 1.408803471178e+00 1.403292036411e+00 1.397633502135e+00 1.391843721297e+00 1.385926764388e+00 1.379900139323e+00 1.373768215664e+00 1.367549992058e+00 1.361250072705e+00 1.354888764144e+00 1.348470840108e+00 1.342017718490e+00 1.335534280423e+00 1.329042849555e+00 1.322548358434e+00 1.316073825938e+00 1.309624188772e+00 1.303222949098e+00 1.296875011127e+00 1.290604149709e+00 1.284415211639e+00 1.278332037195e+00 1.272359402956e+00 1.266521011886e+00 1.260821569328e+00 1.255284443144e+00 1.249914277152e+00 1.244733911018e+00 1.239747945783e+00 1.234978503594e+00 1.230430168165e+00 1.226124157044e+00 1.222065065794e+00 1.218273020415e+00 1.214752657548e+00 1.211522822077e+00 1.208588216534e+00 1.205966209071e+00 1.203661583112e+00 1.201690024265e+00 1.200056395875e+00 1.198774480994e+00 1.197849201575e+00 1.197292206767e+00 1.197108448513e+00 1.197307239009e+00 1.197893576151e+00 1.198874255255e+00 1.200254252221e+00 1.202037555427e+00 1.204228971351e+00 1.206829376249e+00 1.209843235899e+00 1.213268007124e+00 1.217107618305e+00 1.221355800931e+00 1.226015726166e+00 1.231077104291e+00 1.236542113288e+00 1.242396168980e+00 1.248640214682e+00 1.255255136777e+00 1.262240410476e+00 1.269572213882e+00 1.277248344516e+00 1.285240168672e+00 1.293543637606e+00 1.302125296887e+00 1.310979141383e+00 1.320066999788e+00 1.329380875371e+00 1.338878112139e+00 1.348548775603e+00 1.358346097127e+00 1.368258357827e+00 1.378235194378e+00 1.388263361899e+00 1.398289565641e+00 1.408299397668e+00 1.418237432210e+00 1.428088558560e+00 1.437796141290e+00 1.447344910353e+00 1.456678038864e+00 1.465780703047e+00 1.474596968145e+00 1.483113097481e+00 1.491275159760e+00 1.499071149631e+00 1.506450236111e+00 1.513402757686e+00 1.519882021080e+00 1.525881252689e+00 1.531358829201e+00 1.536311304016e+00 1.540702906527e+00 1.544533816728e+00 1.547774709144e+00 1.550429520288e+00 1.552475738254e+00 1.553920996448e+00 1.554749727507e+00 1.554973033530e+00 1.554582267729e+00 1.553591741168e+00 1.551999552363e+00 1.549822755248e+00 1.547065784479e+00 1.543747901308e+00 1.539879382725e+00 1.535481147898e+00 1.530568750658e+00 1.525164208963e+00 1.519287724273e+00 1.512961856238e+00 1.506210779972e+00 1.499057059433e+00 1.491528147485e+00 1.483646112995e+00 1.475440991951e+00 1.466933913290e+00 1.458156824296e+00 1.449129537037e+00 1.439885279379e+00 1.430442246662e+00 1.420834372074e+00 1.411078016186e+00 1.401207307750e+00 1.391236636821e+00 1.381199889316e+00 1.371109427966e+00 1.360998530860e+00 1.350877549058e+00 1.340778859987e+00 1.330710882326e+00 1.320704868286e+00 1.310767436727e+00 1.300928552504e+00 1.291193209335e+00 1.281589977777e+00 1.272122431911e+00 1.262817688212e+00 1.253678126596e+00 1.244729388417e+00 1.235972894792e+00 1.227432821244e+00 1.219109866338e+00 1.211026771181e+00 1.203183741068e+00 1.195602128424e+00 1.188281860926e+00 1.181242955011e+00 1.174485257195e+00 1.168027500677e+00 1.161869623447e+00 1.156029121782e+00 1.150506170031e+00 1.145317061276e+00 1.140462319880e+00 1.135957050908e+00 1.131802207871e+00 1.128011698640e+00 1.124586947241e+00 1.121540625241e+00 1.118874627773e+00 1.116600316419e+00 1.114720015621e+00 1.113243667256e+00 1.112173944452e+00 1.111519232013e+00 1.111282451850e+00 1.111470297940e+00 1.112085842378e+00 1.113133904039e+00 1.114617476081e+00 1.116539187627e+00 1.118901651351e+00 1.121704972266e+00 1.124951070129e+00 1.128637190631e+00 1.132764245201e+00 1.137326295305e+00 1.142322932684e+00 1.147744708821e+00 1.153589509049e+00 1.159844171102e+00 1.166506088541e+00 1.173556686290e+00 1.180990579295e+00 1.188786815650e+00 1.196937463126e+00 1.205417473279e+00 1.214216734603e+00 1.223306251493e+00 1.232673765367e+00 1.242286495574e+00 1.252130118582e+00 1.262168314979e+00 1.272384839787e+00 1.282740166473e+00 1.293216333301e+00 1.303771023894e+00 1.314384827409e+00 1.325013142307e+00 1.335635442887e+00 1.346205436723e+00 1.356701887984e+00 1.367077497617e+00 1.377310797619e+00 1.387354252422e+00 1.397186715508e+00 1.406761242078e+00 1.416057638368e+00 1.425030531283e+00 1.433661181124e+00 1.441906698346e+00 1.449750703043e+00 1.457153713754e+00 1.464102250933e+00 1.470561169903e+00 1.476520536162e+00 1.481950367913e+00 1.486844788334e+00 1.491179674767e+00 1.494953788215e+00 1.498149510296e+00 1.500770083099e+00 1.502804659248e+00 1.504261282086e+00 1.505135767224e+00 1.505440488454e+00 1.505177501707e+00 1.504362650508e+00 1.503003446744e+00 1.501118542001e+00 1.498720386565e+00 1.495829851313e+00 1.492463724488e+00 1.488644450804e+00 1.484392476750e+00 1.479731142769e+00 1.474683810590e+00 1.469274053652e+00 1.463527402054e+00 1.457467020857e+00 1.451119866469e+00 1.444508099094e+00 1.437659450250e+00 1.430594623539e+00 1.423341574334e+00 1.415918817660e+00 1.408353941168e+00 1.400663891952e+00 1.392875200328e+00 1.385002081793e+00 1.377070140285e+00 1.369091204678e+00 1.361089523895e+00 1.353074471061e+00 1.345068678441e+00 1.337079178244e+00 1.329126968838e+00 1.321216842211e+00 1.313368112956e+00 1.305583501938e+00 1.297880656323e+00 1.290260435644e+00 1.282738859585e+00 1.275315148992e+00 1.268003769734e+00 1.260802530330e+00 1.253724433551e+00 1.246766095260e+00 1.239939168693e+00 1.233239288810e+00 1.226676845660e+00 1.220246688568e+00 1.213958074135e+00 1.207805288974e+00 1.201796540661e+00 1.195925625254e+00 1.190199741789e+00 1.184612375427e+00 1.179170233624e+00 1.173866527068e+00 1.168706742151e+00 1.163684203255e+00 1.158803934954e+00 1.154059117832e+00 1.149454170737e+00 1.144982285485e+00 1.140647362985e+00 1.136442682254e+00 1.132371663182e+00 1.128427679108e+00 1.124613728860e+00 1.120923299933e+00 1.117359019589e+00 1.113914488152e+00 1.110592000385e+00 1.107385268229e+00 1.104296286573e+00 1.101318868068e+00 1.098454736848e+00 1.095697793038e+00 1.093049509710e+00 1.090503853450e+00 1.088062073632e+00 1.085718180842e+00 1.083473213558e+00 1.081321202243e+00 1.079262990638e+00 1.077292605610e+00 1.075410708810e+00 1.073611299052e+00 1.071894867505e+00 1.070255362996e+00 1.068693118313e+00 1.067202011627e+00 1.065782227530e+00 1.064427553194e+00 1.063138035132e+00 1.061907352958e+00 1.060735428357e+00 1.059615825462e+00 1.058548359988e+00 1.057526464506e+00 1.056549856593e+00 1.055611840348e+00 1.054712058970e+00 1.053843680699e+00 1.053006296402e+00 1.052192944637e+00 1.051403188047e+00 1.050629944845e+00 1.049872780057e+00 1.049124504235e+00 1.048384718734e+00 1.047646155560e+00 1.046908485129e+00 1.046164382273e+00 1.045413643771e+00 1.044648930204e+00 1.043870211246e+00 1.043070181590e+00 1.042249036890e+00 1.041399513361e+00 1.040522166313e+00 1.039609966267e+00 1.038663778689e+00 1.037676786771e+00 1.036650370306e+00 1.035578074280e+00 1.034461881133e+00 1.033295797618e+00 1.032082538745e+00 1.030816720895e+00 1.029501935185e+00 1.028133580850e+00 1.026716302080e+00 1.025246466616e+00 1.023729966537e+00 1.022164362083e+00 1.020557014185e+00 1.018906923106e+00 1.017223167672e+00 1.015506463767e+00 1.013767881105e+00 1.012010152811e+00 1.010246637077e+00 1.008482429103e+00 1.006733626016e+00 1.005008853037e+00 1.003332131282e+00 1.001744261166e+00 1.000000000000e+00 1.000000000000e+00 1.000000000000e+00 1.000000000000e+00 