# vtk DataFile Version 3.0
Vortex Output
ASCII
DATASET STRUCTURED_POINTS
FIELD FieldData 2
TIME 1 1 double
5.000000
CYCLE 1 1 int
2000
DIMENSIONS 514 130 1
ORIGIN 0 0 0
SPACING 1 1 1
POINT_DATA 66820
SCALARS u double 1
LOOKUP_TABLE default
1.000081879881e+00 1.000081879881e+00 1.000328913596e+00 1.000740474337e+00 1.001318384832e+00 1.002062113453e+00 1.002973731302e+00 1.004052914845e+00 1.005301954316e+00 1.006720694261e+00 1.008311609371e+00 1.010074660441e+00 1.012012459139e+00 1.014125017756e+00 1.016415024705e+00 1.018882466332e+00 1.021530035105e+00 1.024357601686e+00 1.027367777975e+00 1.030560217637e+00 1.033937356384e+00 1.037498519205e+00 1.041245860516e+00 1.045178256467e+00 1.049297467793e+00 1.053601795808e+00 1.058092490994e+00 1.062767151560e+00 1.067626400972e+00 1.072667008312e+00 1.077888858046e+00 1.083287771810e+00 1.088862793726e+00 1.094608693637e+00 1.100523591191e+00 1.106601120889e+00 1.112838417970e+00 1.119227925859e+00 1.125765766546e+00 1.132443171129e+00 1.139255256877e+00 1.146192061465e+00 1.153247748279e+00 1.160411224621e+00 1.167675796046e+00 1.175029348290e+00 1.182464470571e+00 1.189968180276e+00 1.197532534275e+00 1.205143874591e+00 1.212793945905e+00 1.220468639618e+00 1.228159634999e+00 1.235852618331e+00 1.243539464596e+00 1.251205907964e+00 1.258844280545e+00 1.266440610474e+00 1.273987934050e+00 1.281472798181e+00 1.288889162155e+00 1.296224282342e+00 1.303473219665e+00 1.310624086301e+00 1.317673174497e+00 1.324609547566e+00 1.331430804729e+00 1.338127002058e+00 1.344697066241e+00 1.351132035297e+00 1.357432131309e+00 1.363589315774e+00 1.369605027204e+00 1.375472051991e+00 1.381192927103e+00 1.386761134464e+00 1.392180161685e+00 1.397444036254e+00 1.402557028291e+00 1.407513550450e+00 1.412318476036e+00 1.416966441546e+00 1.421462741183e+00 1.425802081408e+00 1.429989999103e+00 1.434021131316e+00 1.437901089171e+00 1.441624321103e+00 1.445196358314e+00 1.448611365972e+00 1.451874658866e+00 1.454980052023e+00 1.457932527490e+00 1.460725513271e+00 1.463363564280e+00 1.465839715949e+00 1.468158024765e+00 1.470311159918e+00 1.472302631886e+00 1.474124801575e+00 1.475780609663e+00 1.477262197267e+00 1.478571934717e+00 1.479701860333e+00 1.480653795422e+00 1.481419817717e+00 1.482001240039e+00 1.482390341571e+00 1.482587980943e+00 1.482586813121e+00 1.482387333853e+00 1.481982826724e+00 1.481373556702e+00 1.480553639028e+00 1.479523192504e+00 1.478277366278e+00 1.476816236630e+00 1.475136190820e+00 1.473237367577e+00 1.471117585187e+00 1.468777145971e+00 1.466215474699e+00 1.463433129662e+00 1.460431293369e+00 1.457210859356e+00 1.453774889608e+00 1.450124675833e+00 1.446265247486e+00 1.442198338643e+00 1.437930997593e+00 1.433465425037e+00 1.428810701412e+00 1.423969498320e+00 1.418952903648e+00 1.413764045274e+00 1.408415957289e+00 1.402912192408e+00 1.397267635783e+00 1.391486219654e+00 1.385584554854e+00 1.379566897461e+00 1.373451432737e+00 1.367242678388e+00 1.360960221748e+00 1.354608777343e+00 1.348209146013e+00 1.341766175444e+00 1.335301679943e+00 1.328820581248e+00 1.322345499990e+00 1.315881380248e+00 1.309451438537e+00 1.303060599194e+00 1.296732464011e+00 1.290471906620e+00 1.284302705684e+00 1.278229665051e+00 1.272276535648e+00 1.266448044355e+00 1.260767714369e+00 1.255240199635e+00 1.249888600318e+00 1.244717511312e+00 1.239749418559e+00 1.234988879623e+00 1.230457577913e+00 1.226160060564e+00 1.222117021201e+00 1.218333025278e+00 1.214827587980e+00 1.211605319580e+00 1.208684363611e+00 1.206069394379e+00 1.203776981975e+00 1.201811870482e+00 1.200188841238e+00 1.198912693284e+00 1.197996186073e+00 1.197444135740e+00 1.197267042160e+00 1.197469736828e+00 1.198060340987e+00 1.199043740593e+00 1.200425410250e+00 1.202210130404e+00 1.204400416024e+00 1.207000782994e+00 1.210010481653e+00 1.213433582740e+00 1.217265766620e+00 1.221510453797e+00 1.226159454661e+00 1.231215314798e+00 1.236665690824e+00 1.242512018093e+00 1.248737546062e+00 1.255342365999e+00 1.262305113967e+00 1.269624319357e+00 1.277273864194e+00 1.285250530606e+00 1.293523390643e+00 1.302087343319e+00 1.310906698088e+00 1.319974401282e+00 1.329250167191e+00 1.338725001310e+00 1.348354323683e+00 1.358127304353e+00 1.367995512245e+00 1.377946488728e+00 1.387928539642e+00 1.397927888279e+00 1.407890305973e+00 1.417801108470e+00 1.427604389628e+00 1.437285057429e+00 1.446786493719e+00 1.456093770243e+00 1.465150603104e+00 1.473942847236e+00 1.482415645732e+00 1.490556274789e+00 1.498312403954e+00 1.505673354118e+00 1.512590384085e+00 1.519055432480e+00 1.525024328364e+00 1.530492114307e+00 1.535420043964e+00 1.539806627866e+00 1.543619229417e+00 1.546860036529e+00 1.549503000459e+00 1.551554014365e+00 1.552993859314e+00 1.553831966765e+00 1.554055958694e+00 1.553678571017e+00 1.552694338161e+00 1.551119062201e+00 1.548953819390e+00 1.546216873025e+00 1.542915371867e+00 1.539069497034e+00 1.534691947191e+00 1.529804269890e+00 1.524424122876e+00 1.518573863871e+00 1.512275463873e+00 1.505551545213e+00 1.498427712365e+00 1.490926335358e+00 1.483075961307e+00 1.474898237067e+00 1.466423972781e+00 1.457673682232e+00 1.448679790077e+00 1.439461339341e+00 1.430051768080e+00 1.420468390041e+00 1.410745115190e+00 1.400897351278e+00 1.390959006342e+00 1.380943485819e+00 1.370884293678e+00 1.360792812270e+00 1.350701811574e+00 1.340620698027e+00 1.330581247488e+00 1.320590996055e+00 1.310680530378e+00 1.300855669484e+00 1.291145674342e+00 1.281554836681e+00 1.272111006412e+00 1.262817163196e+00 1.253699703470e+00 1.244760525056e+00 1.236024563121e+00 1.227492869326e+00 1.219188936136e+00 1.211113201755e+00 1.203287752905e+00 1.195712636785e+00 1.188408582157e+00 1.181375451287e+00 1.174632666455e+00 1.168180089562e+00 1.162035884866e+00 1.156200072654e+00 1.150689598256e+00 1.145504769531e+00 1.140661336481e+00 1.136159990727e+00 1.132015289070e+00 1.128228366709e+00 1.124812562047e+00 1.121769473963e+00 1.119111164505e+00 1.116839673847e+00 1.114965693086e+00 1.113491638487e+00 1.112426700269e+00 1.111773571569e+00 1.111539796597e+00 1.111728265701e+00 1.112344790160e+00 1.113392342286e+00 1.114874714590e+00 1.116794647557e+00 1.119153577639e+00 1.121953709430e+00 1.125193793183e+00 1.128875188799e+00 1.132993634842e+00 1.137549341793e+00 1.142534735086e+00 1.147948606738e+00 1.153779853014e+00 1.160024032176e+00 1.166669841305e+00 1.173709093504e+00 1.181124023543e+00 1.188907688403e+00 1.197037153796e+00 1.205503382849e+00 1.214279463769e+00 1.223354204395e+00 1.232696816575e+00 1.242293997664e+00 1.252111281436e+00 1.262133365602e+00 1.272322391917e+00 1.282661232350e+00 1.293109009893e+00 1.303647008479e+00 1.314231793927e+00 1.324843366292e+00 1.335436285960e+00 1.345989643102e+00 1.356456635575e+00 1.366815889845e+00 1.377019973469e+00 1.387047566706e+00 1.396851421647e+00 1.406410855062e+00 1.415679687623e+00 1.424638507733e+00 1.433243136838e+00 1.441476102210e+00 1.449296177538e+00 1.456688500766e+00 1.463615732603e+00 1.470066264218e+00 1.476007519842e+00 1.481431718532e+00 1.486311820663e+00 1.490644337697e+00 1.494408386003e+00 1.497605077415e+00 1.500220097054e+00 1.502259253082e+00 1.503714936826e+00 1.504597458476e+00 1.504905676876e+00 1.504653801170e+00 1.503846483052e+00 1.502501040182e+00 1.500627313847e+00 1.498245126946e+00 1.495368950382e+00 1.492020495840e+00 1.488218223938e+00 1.483985076995e+00 1.479342800705e+00 1.474314894709e+00 1.468925652647e+00 1.463198475631e+00 1.457159470619e+00 1.450831332698e+00 1.444241281610e+00 1.437410772487e+00 1.430367496768e+00 1.423131227070e+00 1.415729562935e+00 1.408180253249e+00 1.400510330212e+00 1.392735281768e+00 1.384881189387e+00 1.376961143254e+00 1.368999981086e+00 1.361008350359e+00 1.353009636395e+00 1.345012078932e+00 1.337037477654e+00 1.329091765466e+00 1.321195087843e+00 1.313351222929e+00 1.305578646722e+00 1.297879171348e+00 1.290269630220e+00 1.282750081466e+00 1.275335774588e+00 1.268025237145e+00 1.260832215958e+00 1.253753932764e+00 1.246802727558e+00 1.239974734230e+00 1.233280989999e+00 1.226716746012e+00 1.220291843969e+00 1.214000840264e+00 1.207852487770e+00 1.201840816285e+00 1.195973593237e+00 1.190244468744e+00 1.184660322959e+00 1.179214551654e+00 1.173913239468e+00 1.168749632074e+00 1.163729103265e+00 1.158844832879e+00 1.154101561125e+00 1.149492467759e+00 1.145021729209e+00 1.140682574130e+00 1.136478677621e+00 1.132403351295e+00 1.128459824274e+00 1.124641512180e+00 1.120951246799e+00 1.117382557720e+00 1.113937921768e+00 1.110610983163e+00 1.107403900332e+00 1.104310425165e+00 1.101332428936e+00 1.098463758202e+00 1.095706023598e+00 1.093053148772e+00 1.090506506134e+00 1.088060075602e+00 1.085715010286e+00 1.083465323485e+00 1.081311965081e+00 1.079248957845e+00 1.077277062311e+00 1.075390286712e+00 1.073589214560e+00 1.071867816255e+00 1.070226509687e+00 1.068659205539e+00 1.067166167150e+00 1.065741225624e+00 1.064384501075e+00 1.063089727696e+00 1.061856894507e+00 1.060679624446e+00 1.059557788888e+00 1.058484888583e+00 1.057460692520e+00 1.056478572129e+00 1.055538211562e+00 1.054632849978e+00 1.053762107011e+00 1.052919091176e+00 1.052103381169e+00 1.051307961546e+00 1.050532397454e+00 1.049769561770e+00 1.049019037885e+00 1.048273605530e+00 1.047532903213e+00 1.046789643049e+00 1.046043561415e+00 1.045287336268e+00 1.044520851425e+00 1.043736793215e+00 1.042935250432e+00 1.042108970715e+00 1.041258314684e+00 1.040376156210e+00 1.039463205450e+00 1.038512541185e+00 1.037525313425e+00 1.036494900263e+00 1.035422996415e+00 1.034303391534e+00 1.033138446530e+00 1.031922494983e+00 1.030658704352e+00 1.029342106953e+00 1.027976838281e+00 1.026558808902e+00 1.025093307070e+00 1.023577327720e+00 1.022017521478e+00 1.020412201588e+00 1.018769616297e+00 1.017089658955e+00 1.015382435671e+00 1.013649707866e+00 1.011903722618e+00 1.010148423108e+00 1.008398520439e+00 1.006660604579e+00 1.004952982814e+00 1.003290031690e+00 1.001721931636e+00 1.000000000000e+00 1.000000000000e+00 1.000000000000e+00 1.000000000000e+00 
1.000000000000e+00 1.000081879881e+00 1.000328913596e+00 1.000740474337e+00 1.001318384832e+00 1.002062113453e+00 1.002973731302e+00 1.004052914845e+00 1.005301954316e+00 1.006720694261e+00 1.008311609371e+00 1.010074660441e+00 1.012012459139e+00 1.014125017756e+00 1.016415024705e+00 1.018882466332e+00 1.021530035105e+00 1.024357601686e+00 1.027367777975e+00 1.030560217637e+00 1.033937356384e+00 1.037498519205e+00 1.041245860516e+00 1.045178256467e+00 1.049297467793e+00 1.053601795808e+00 1.058092490994e+00 1.062767151560e+00 1.067626400972e+00 1.072667008312e+00 1.077888858046e+00 1.083287771810e+00 1.088862793726e+00 1.094608693637e+00 1.100523591191e+00 1.106601120889e+00 1.112838417970e+00 1.119227925859e+00 1.125765766546e+00 1.132443171129e+00 1.139255256877e+00 1.146192061465e+00 1.153247748279e+00 1.160411224621e+00 1.167675796046e+00 1.175029348290e+00 1.182464470571e+00 1.189968180276e+00 1.197532534275e+00 1.205143874591e+00 1.212793945905e+00 1.220468639618e+00 1.228159634999e+00 1.235852618331e+00 1.243539464596e+00 1.251205907964e+00 1.258844280545e+00 1.266440610474e+00 1.273987934050e+00 1.281472798181e+00 1.288889162155e+00 1.296224282342e+00 1.303473219665e+00 1.310624086301e+00 1.317673174497e+00 1.324609547566e+00 1.331430804729e+00 1.338127002058e+00 1.344697066241e+00 1.351132035297e+00 1.357432131309e+00 1.363589315774e+00 1.369605027204e+00 1.375472051991e+00 1.381192927103e+00 1.386761134464e+00 1.392180161685e+00 1.397444036254e+00 1.402557028291e+00 1.407513550450e+00 1.412318476036e+00 1.416966441546e+00 1.421462741183e+00 1.425802081408e+00 1.429989999103e+00 1.434021131316e+00 1.437901089171e+00 1.441624321103e+00 1.445196358314e+00 1.448611365972e+00 1.451874658866e+00 1.454980052023e+00 1.457932527490e+00 1.460725513271e+00 1.463363564280e+00 1.465839715949e+00 1.468158024765e+00 1.470311159918e+00 1.472302631886e+00 1.474124801575e+00 1.475780609663e+00 1.477262197267e+00 1.478571934717e+00 1.479701860333e+00 1.480653795422e+00 1.481419817717e+00 1.482001240039e+00 1.482390341571e+00 1.482587980943e+00 1.482586813121e+00 1.482387333853e+00 1.481982826724e+00 1.481373556702e+00 1.480553639028e+00 1.479523192504e+00 1.478277366278e+00 1.476816236630e+00 1.475136190820e+00 1.473237367577e+00 1.471117585187e+00 1.468777145971e+00 1.466215474699e+00 1.463433129662e+00 1.460431293369e+00 1.457210859356e+00 1.453774889608e+00 1.450124675833e+00 1.446265247486e+00 1.442198338643e+00 1.437930997593e+00 1.433465425037e+00 1.428810701412e+00 1.423969498320e+00 1.418952903648e+00 1.413764045274e+00 1.408415957289e+00 1.402912192408e+00 1.397267635783e+00 1.391486219654e+00 1.385584554854e+00 1.379566897461e+00 1.373451432737e+00 1.367242678388e+00 1.360960221748e+00 1.354608777343e+00 1.348209146013e+00 1.341766175444e+00 1.335301679943e+00 1.328820581248e+00 1.322345499990e+00 1.315881380248e+00 1.309451438537e+00 1.303060599194e+00 1.296732464011e+00 1.290471906620e+00 1.284302705684e+00 1.278229665051e+00 1.272276535648e+00 1.266448044355e+00 1.260767714369e+00 1.255240199635e+00 1.249888600318e+00 1.244717511312e+00 1.239749418559e+00 1.234988879623e+00 1.230457577913e+00 1.226160060564e+00 1.222117021201e+00 1.218333025278e+00 1.214827587980e+00 1.211605319580e+00 1.208684363611e+00 1.206069394379e+00 1.203776981975e+00 1.201811870482e+00 1.200188841238e+00 1.198912693284e+00 1.197996186073e+00 1.197444135740e+00 1.197267042160e+00 1.197469736828e+00 1.198060340987e+00 1.199043740593e+00 1.200425410250e+00 1.202210130404e+00 1.204400416024e+00 1.207000782994e+00 1.210010481653e+00 1.213433582740e+00 1.217265766620e+00 1.221510453797e+00 1.226159454661e+00 1.231215314798e+00 1.236665690824e+00 1.242512018093e+00 1.248737546062e+00 1.255342365999e+00 1.262305113967e+00 1.269624319357e+00 1.277273864194e+00 1.285250530606e+00 1.293523390643e+00 1.302087343319e+00 1.310906698088e+00 1.319974401282e+00 1.329250167191e+00 1.338725001310e+00 1.348354323683e+00 1.358127304353e+00 1.367995512245e+00 1.377946488728e+00 1.387928539642e+00 1.397927888279e+00 1.407890305973e+00 1.417801108470e+00 1.427604389628e+00 1.437285057429e+00 1.446786493719e+00 1.456093770243e+00 1.465150603104e+00 1.473942847236e+00 1.482415645732e+00 1.490556274789e+00 1.498312403954e+00 1.505673354118e+00 1.512590384085e+00 1.519055432480e+00 1.525024328364e+00 1.530492114307e+00 1.535420043964e+00 1.539806627866e+00 1.543619229417e+00 1.546860036529e+00 1.549503000459e+00 1.551554014365e+00 1.552993859314e+00 1.553831966765e+00 1.554055958694e+00 1.553678571017e+00 1.552694338161e+00 1.551119062201e+00 1.548953819390e+00 1.546216873025e+00 1.542915371867e+00 1.539069497034e+00 1.534691947191e+00 1.529804269890e+00 1.524424122876e+00 1.518573863871e+00 1.512275463873e+00 1.505551545213e+00 1.498427712365e+00 1.490926335358e+00 1.483075961307e+00 1.474898237067e+00 1.466423972781e+00 1.457673682232e+00 1.448679790077e+00 1.439461339341e+00 1.430051768080e+00 1.420468390041e+00 1.410745115190e+00 1.400897351278e+00 1.390959006342e+00 1.380943485819e+00 1.370884293678e+00 1.360792812270e+00 1.350701811574e+00 1.340620698027e+00 1.330581247488e+00 1.320590996055e+00 1.310680530378e+00 1.300855669484e+00 1.291145674342e+00 1.281554836681e+00 1.272111006412e+00 1.262817163196e+00 1.253699703470e+00 1.244760525056e+00 1.236024563121e+00 1.227492869326e+00 1.219188936136e+00 1.211113201755e+00 1.203287752905e+00 1.195712636785e+00 1.188408582157e+00 1.181375451287e+00 1.174632666455e+00 1.168180089562e+00 1.162035884866e+00 1.156200072654e+00 1.150689598256e+00 1.145504769531e+00 1.140661336481e+00 1.136159990727e+00 1.132015289070e+00 1.128228366709e+00 1.124812562047e+00 1.121769473963e+00 1.119111164505e+00 1.116839673847e+00 1.114965693086e+00 1.113491638487e+00 1.112426700269e+00 1.111773571569e+00 1.111539796597e+00 1.111728265701e+00 1.112344790160e+00 1.113392342286e+00 1.114874714590e+00 1.116794647557e+00 1.119153577639e+00 1.121953709430e+00 1.125193793183e+00 1.128875188799e+00 1.132993634842e+00 1.137549341793e+00 1.142534735086e+00 1.147948606738e+00 1.153779853014e+00 1.160024032176e+00 1.166669841305e+00 1.173709093504e+00 1.181124023543e+00 1.188907688403e+00 1.197037153796e+00 1.205503382849e+00 1.214279463769e+00 1.223354204395e+00 1.232696816575e+00 1.242293997664e+00 1.252111281436e+00 1.262133365602e+00 1.272322391917e+00 1.282661232350e+00 1.293109009893e+00 1.303647008479e+00 1.314231793927e+00 1.324843366292e+00 1.335436285960e+00 1.345989643102e+00 1.356456635575e+00 1.366815889845e+00 1.377019973469e+00 1.387047566706e+00 1.396851421647e+00 1.406410855062e+00 1.415679687623e+00 1.424638507733e+00 1.433243136838e+00 1.441476102210e+00 1.449296177538e+00 1.456688500766e+00 1.463615732603e+00 1.470066264218e+00 1.476007519842e+00 1.481431718532e+00 1.486311820663e+00 1.490644337697e+00 1.494408386003e+00 1.497605077415e+00 1.500220097054e+00 1.502259253082e+00 1.503714936826e+00 1.504597458476e+00 1.504905676876e+00 1.504653801170e+00 1.503846483052e+00 1.502501040182e+00 1.500627313847e+00 1.498245126946e+00 1.495368950382e+00 1.492020495840e+00 1.488218223938e+00 1.483985076995e+00 1.479342800705e+00 1.474314894709e+00 1.468925652647e+00 1.463198475631e+00 1.457159470619e+00 1.450831332698e+00 1.444241281610e+00 1.437410772487e+00 1.430367496768e+00 1.423131227070e+00 1.415729562935e+00 1.408180253249e+00 1.400510330212e+00 1.392735281768e+00 1.384881189387e+00 1.376961143254e+00 1.368999981086e+00 1.361008350359e+00 1.353009636395e+00 1.345012078932e+00 1.337037477654e+00 1.329091765466e+00 1.321195087843e+00 1.313351222929e+00 1.305578646722e+00 1.297879171348e+00 1.290269630220e+00 1.282750081466e+00 1.275335774588e+00 1.268025237145e+00 1.260832215958e+00 1.253753932764e+00 1.246802727558e+00 1.239974734230e+00 1.233280989999e+00 1.226716746012e+00 1.220291843969e+00 1.214000840264e+00 1.207852487770e+00 1.201840816285e+00 1.195973593237e+00 1.190244468744e+00 1.184660322959e+00 1.179214551654e+00 1.173913239468e+00 1.168749632074e+00 1.163729103265e+00 1.158844832879e+00 1.154101561125e+00 1.149492467759e+00 1.145021729209e+00 1.140682574130e+00 1.136478677621e+00 1.132403351295e+00 1.128459824274e+00 1.124641512180e+00 1.120951246799e+00 1.117382557720e+00 1.113937921768e+00 1.110610983163e+00 1.107403900332e+00 1.104310425165e+00 1.101332428936e+00 1.098463758202e+00 1.095706023598e+00 1.093053148772e+00 1.090506506134e+00 1.088060075602e+00 1.085715010286e+00 1.083465323485e+00 1.081311965081e+00 1.079248957845e+00 1.077277062311e+00 1.075390286712e+00 1.073589214560e+00 1.071867816255e+00 1.070226509687e+00 1.068659205539e+00 1.067166167150e+00 1.065741225624e+00 1.064384501075e+00 1.063089727696e+00 1.061856894507e+00 1.060679624446e+00 1.059557788888e+00 1.058484888583e+00 1.057460692520e+00 1.056478572129e+00 1.055538211562e+00 1.054632849978e+00 1.053762107011e+00 1.052919091176e+00 1.052103381169e+00 1.051307961546e+00 1.050532397454e+00 1.049769561770e+00 1.049019037885e+00 1.048273605530e+00 1.047532903213e+00 1.046789643049e+00 1.046043561415e+00 1.045287336268e+00 1.044520851425e+00 1.043736793215e+00 1.042935250432e+00 1.042108970715e+00 1.041258314684e+00 1.040376156210e+00 1.039463205450e+00 1.038512541185e+00 1.037525313425e+00 1.036494900263e+00 1.035422996415e+00 1.034303391534e+00 1.033138446530e+00 1.031922494983e+00 1.030658704352e+00 1.029342106953e+00 1.027976838281e+00 1.026558808902e+00 1.025093307070e+00 1.023577327720e+00 1.022017521478e+00 1.020412201588e+00 1.018769616297e+00 1.017089658955e+00 1.015382435671e+00 1.013649707866e+00 1.011903722618e+00 1.010148423108e+00 1.008398520439e+00 1.006660604579e+00 1.004952982814e+00 1.003290031690e+00 1.001721931636e+00 1.000000000000e+00 1.000000000000e+00 1.000000000000e+00 1.000000000000e+00 
1.000000000000e+00 1.000082297187e+00 1.000328600537e+00 1.000740583836e+00 1.001317616107e+00 1.002061651442e+00 1.002972270028e+00 1.004051661576e+00 1.005299600279e+00 1.006718484326e+00 1.008308235563e+00 1.010071418702e+00 1.012008044283e+00 1.014120789242e+00 1.016409681382e+00 1.018877443126e+00 1.021524035655e+00 1.024352147897e+00 1.027361578473e+00 1.030554892209e+00 1.033931618060e+00 1.037494095662e+00 1.041241467502e+00 1.045175738263e+00 1.049295539686e+00 1.053602425662e+00 1.058094388508e+00 1.062772412935e+00 1.067633722779e+00 1.072678617126e+00 1.077903426915e+00 1.083307656562e+00 1.088886630269e+00 1.094638962448e+00 1.100558873964e+00 1.106644014530e+00 1.112887429408e+00 1.119285756697e+00 1.125830825193e+00 1.132518249075e+00 1.139338637635e+00 1.146286609310e+00 1.153351593782e+00 1.160527286593e+00 1.167802023683e+00 1.175168697002e+00 1.182614680907e+00 1.190132228294e+00 1.197707927463e+00 1.205333597411e+00 1.212995252899e+00 1.220684516720e+00 1.228387069900e+00 1.236094598071e+00 1.243792703126e+00 1.251473400363e+00 1.259122467643e+00 1.266732509686e+00 1.274289721024e+00 1.281787533703e+00 1.289212771145e+00 1.296559895417e+00 1.303816530628e+00 1.310978325665e+00 1.318033827998e+00 1.324979977118e+00 1.331806312656e+00 1.338511112389e+00 1.345084922409e+00 1.351527351263e+00 1.357829914582e+00 1.363993493387e+00 1.370010491201e+00 1.375882959577e+00 1.381604072360e+00 1.387176914936e+00 1.392595288098e+00 1.397863149259e+00 1.402974767447e+00 1.407934794772e+00 1.412737804482e+00 1.417388959365e+00 1.421882976645e+00 1.426225346775e+00 1.430410782237e+00 1.434444925531e+00 1.438322353548e+00 1.442048697681e+00 1.445618291229e+00 1.449036607664e+00 1.452297655275e+00 1.455406622033e+00 1.458357139037e+00 1.461154002493e+00 1.463790445099e+00 1.466270787787e+00 1.468587875531e+00 1.470745494123e+00 1.472736143511e+00 1.474563038504e+00 1.476218408097e+00 1.477704884101e+00 1.479014528494e+00 1.480149401067e+00 1.481101528068e+00 1.481872429547e+00 1.482454250981e+00 1.482848023592e+00 1.483046186306e+00 1.483049351014e+00 1.482850452654e+00 1.482449796012e+00 1.481841044640e+00 1.481024303226e+00 1.479994171399e+00 1.478750655063e+00 1.477289497111e+00 1.475610711489e+00 1.473711384851e+00 1.471591644412e+00 1.469250106627e+00 1.466687110888e+00 1.463902968316e+00 1.460898318240e+00 1.457675304049e+00 1.454234937798e+00 1.450581300642e+00 1.446715832256e+00 1.442644621324e+00 1.438369570298e+00 1.433898807248e+00 1.429234712174e+00 1.424387445821e+00 1.419359860650e+00 1.414164105607e+00 1.408803482303e+00 1.403292047791e+00 1.397633513883e+00 1.391843733285e+00 1.385926776727e+00 1.379900151882e+00 1.373768228554e+00 1.367550005146e+00 1.361250086101e+00 1.354888777715e+00 1.348470853960e+00 1.342017732490e+00 1.335534294676e+00 1.329042863927e+00 1.322548373029e+00 1.316073840622e+00 1.309624203646e+00 1.303222964032e+00 1.296875026215e+00 1.290604164826e+00 1.284415226875e+00 1.278332052427e+00 1.272359418272e+00 1.266521027167e+00 1.260821584654e+00 1.255284458404e+00 1.249914292419e+00 1.244733926189e+00 1.239747960923e+00 1.234978518607e+00 1.230430183109e+00 1.226124171830e+00 1.222065080474e+00 1.218273034909e+00 1.214752671898e+00 1.211522836214e+00 1.208588230488e+00 1.205966222787e+00 1.203661596608e+00 1.201690037497e+00 1.200056408852e+00 1.198774493683e+00 1.197849213973e+00 1.197292218856e+00 1.197108460276e+00 1.197307250442e+00 1.197893587226e+00 1.198874265982e+00 1.200254262557e+00 1.202037565399e+00 1.204228980902e+00 1.206829385422e+00 1.209843244624e+00 1.213268015460e+00 1.217107626167e+00 1.221355808396e+00 1.226015733136e+00 1.231077110859e+00 1.236542119344e+00 1.242396174635e+00 1.248640219813e+00 1.255255141513e+00 1.262240414679e+00 1.269572217703e+00 1.277248347803e+00 1.285240171595e+00 1.293543640002e+00 1.302125298944e+00 1.310979142927e+00 1.320067001027e+00 1.329380876119e+00 1.338878112624e+00 1.348548775627e+00 1.358346096938e+00 1.368258357217e+00 1.378235193613e+00 1.388263360762e+00 1.398289564415e+00 1.408299396127e+00 1.418237430653e+00 1.428088556753e+00 1.437796139549e+00 1.447344908432e+00 1.456678037094e+00 1.465780701173e+00 1.474596966512e+00 1.483113095824e+00 1.491275158435e+00 1.499071148365e+00 1.506450235268e+00 1.513402756982e+00 1.519882020888e+00 1.525881252717e+00 1.531358829825e+00 1.536311304934e+00 1.540702908119e+00 1.544533818681e+00 1.547774711841e+00 1.550429523407e+00 1.552475742178e+00 1.553921000844e+00 1.554749732754e+00 1.554973039290e+00 1.554582274378e+00 1.553591748358e+00 1.551999560467e+00 1.549822763912e+00 1.547065794068e+00 1.543747911465e+00 1.539879393809e+00 1.535481159546e+00 1.530568763222e+00 1.525164222080e+00 1.519287738285e+00 1.512961870783e+00 1.506210795380e+00 1.499057075349e+00 1.491528164226e+00 1.483646130211e+00 1.475441009946e+00 1.466933931725e+00 1.458156843458e+00 1.449129556601e+00 1.439885299614e+00 1.430442267261e+00 1.420834393284e+00 1.411078037720e+00 1.401207329834e+00 1.391236659191e+00 1.381199912173e+00 1.371109451074e+00 1.360998554392e+00 1.350877572809e+00 1.340778884098e+00 1.330710906627e+00 1.320704892884e+00 1.310767461490e+00 1.300928577503e+00 1.291193234477e+00 1.281590003095e+00 1.272122457355e+00 1.262817713772e+00 1.253678152267e+00 1.244729414147e+00 1.235972920623e+00 1.227432847079e+00 1.219109892263e+00 1.211026797057e+00 1.203183767025e+00 1.195602154282e+00 1.188281886857e+00 1.181242980792e+00 1.174485283042e+00 1.168027526326e+00 1.161869649151e+00 1.156029147243e+00 1.150506195534e+00 1.145317086494e+00 1.140462345120e+00 1.135957075823e+00 1.131802232785e+00 1.128011723192e+00 1.124586971761e+00 1.121540649363e+00 1.118874651824e+00 1.116600340041e+00 1.114720039126e+00 1.113243690301e+00 1.112173967323e+00 1.111519254397e+00 1.111282473993e+00 1.111470319571e+00 1.112085863691e+00 1.113133924817e+00 1.114617496451e+00 1.116539207441e+00 1.118901670659e+00 1.121704990999e+00 1.124951088247e+00 1.128637208156e+00 1.132764261992e+00 1.137326311487e+00 1.142322948010e+00 1.147744723532e+00 1.153589522778e+00 1.159844184325e+00 1.166506100541e+00 1.173556697558e+00 1.180990589330e+00 1.188786825019e+00 1.196937471105e+00 1.205417480576e+00 1.214216740374e+00 1.223306256557e+00 1.232673768776e+00 1.242286498251e+00 1.252130119488e+00 1.262168315121e+00 1.272384838053e+00 1.282740163938e+00 1.293216328804e+00 1.303771018549e+00 1.314384820035e+00 1.325013134029e+00 1.335635432539e+00 1.346205425403e+00 1.356701874579e+00 1.367077483416e+00 1.377310781036e+00 1.387354235821e+00 1.397186691361e+00 1.406761230613e+00 1.416057620505e+00 1.425030469638e+00 1.433661122775e+00 1.441906662147e+00 1.449750686801e+00 1.457153705083e+00 1.464102237939e+00 1.470561137774e+00 1.476520469664e+00 1.481950269540e+00 1.486844682822e+00 1.491179642749e+00 1.494953781400e+00 1.498149466859e+00 1.500770045079e+00 1.502804621344e+00 1.504261239028e+00 1.505135722965e+00 1.505440445074e+00 1.505177456392e+00 1.504362606046e+00 1.503003400363e+00 1.501118496872e+00 1.498720339511e+00 1.495829806083e+00 1.492463676929e+00 1.488644406863e+00 1.484392428825e+00 1.479731098496e+00 1.474683766601e+00 1.469274014216e+00 1.463527360809e+00 1.457466971749e+00 1.451119806679e+00 1.444508037482e+00 1.437659384962e+00 1.430594534853e+00 1.423341361504e+00 1.415918670746e+00 1.408353968416e+00 1.400663891598e+00 1.392875148021e+00 1.385002021144e+00 1.377070084076e+00 1.369091179151e+00 1.361089497090e+00 1.353074438250e+00 1.345068643953e+00 1.337079144962e+00 1.329126936683e+00 1.321216811141e+00 1.313368080413e+00 1.305583472224e+00 1.297880625463e+00 1.290260407447e+00 1.282738830655e+00 1.275315122586e+00 1.268003742795e+00 1.260802505247e+00 1.253724408137e+00 1.246766074803e+00 1.239939144557e+00 1.233239262606e+00 1.226676817087e+00 1.220246672092e+00 1.213958073179e+00 1.207805281448e+00 1.201796506169e+00 1.195925562707e+00 1.190199725748e+00 1.184612500537e+00 1.179170322810e+00 1.173866501819e+00 1.168706723032e+00 1.163684193209e+00 1.158803928811e+00 1.154059108326e+00 1.149454152903e+00 1.144982269339e+00 1.140647349656e+00 1.136442669725e+00 1.132371651320e+00 1.128427666235e+00 1.124613717907e+00 1.120923288911e+00 1.117359009710e+00 1.113914478390e+00 1.110591991715e+00 1.107385259610e+00 1.104296278809e+00 1.101318860637e+00 1.098454730427e+00 1.095697785219e+00 1.093049503141e+00 1.090503847418e+00 1.088062069363e+00 1.085718176240e+00 1.083473209769e+00 1.081321197609e+00 1.079262986584e+00 1.077292600589e+00 1.075410704385e+00 1.073611294294e+00 1.071894864620e+00 1.070255361391e+00 1.068693119456e+00 1.067202013575e+00 1.065782230125e+00 1.064427553921e+00 1.063138034400e+00 1.061907350529e+00 1.060735427411e+00 1.059615825474e+00 1.058548359661e+00 1.057526462767e+00 1.056549855805e+00 1.055611838814e+00 1.054712057629e+00 1.053843678773e+00 1.053006294649e+00 1.052192942291e+00 1.051403185923e+00 1.050629942408e+00 1.049872777113e+00 1.049124501918e+00 1.048384717359e+00 1.047646152093e+00 1.046908481271e+00 1.046164379498e+00 1.045413642271e+00 1.044648927754e+00 1.043870204854e+00 1.043070162572e+00 1.042249004846e+00 1.041399509922e+00 1.040522188386e+00 1.039609978924e+00 1.038663782031e+00 1.037676782678e+00 1.036650367999e+00 1.035578071799e+00 1.034461880088e+00 1.033295796975e+00 1.032082537276e+00 1.030816718147e+00 1.029501933150e+00 1.028133578866e+00 1.026716299841e+00 1.025246464299e+00 1.023729964316e+00 1.022164359543e+00 1.020557011838e+00 1.018906920449e+00 1.017223165262e+00 1.015506461089e+00 1.013767878739e+00 1.012010150238e+00 1.010246634905e+00 1.008482426817e+00 1.006733624249e+00 1.005008851274e+00 1.003332130172e+00 1.001744260227e+00 1.000000000000e+00 1.000000000000e+00 1.000000000000e+00 1.000000000000e+00 