# vtk DataFile Version 3.0
Vortex Output
ASCII
DATASET STRUCTURED_POINTS
FIELD FieldData 2
TIME 1 1 double
5.000000
CYCLE 1 1 int
2000
DIMENSIONS 514 130 1
ORIGIN 0 0 0
SPACING 1 1 1
POINT_DATA 66820
SCALARS u double 1
LOOKUP_TABLE default
1.000000000000e+00 1.000087211825e+00 1.000344676489e+00 1.000776547353e+00 1.001378151558e+00 1.002154387310e+00 1.003100751382e+00 1.004222345574e+00 1.005514838982e+00 1.006983514811e+00 1.008624168651e+00 1.010442228288e+00 1.012433566613e+00 1.014603697336e+00 1.016948500273e+00 1.019473518217e+00 1.022174550499e+00 1.025057094909e+00 1.028116778645e+00 1.031358961785e+00 1.034778997744e+00 1.038382006743e+00 1.042162954908e+00 1.046126612983e+00 1.050267437879e+00 1.054589735101e+00 1.059087325860e+00 1.063763931558e+00 1.068612611239e+00 1.073636384304e+00 1.078827426876e+00 1.084187944326e+00 1.089709120896e+00 1.095392249153e+00 1.101227427897e+00 1.107214963377e+00 1.113343793796e+00 1.119613198977e+00 1.126010915282e+00 1.132535173059e+00 1.139172520450e+00 1.145920164723e+00 1.152763496083e+00 1.159698779694e+00 1.166710338816e+00 1.173793608404e+00 1.180931987298e+00 1.188120240204e+00 1.195341023763e+00 1.202588634615e+00 1.209845207959e+00 1.217104810329e+00 1.224349302306e+00 1.231572779073e+00 1.238757093020e+00 1.245896637107e+00 1.252973523336e+00 1.259982705691e+00 1.266906814528e+00 1.273741608898e+00 1.280470470787e+00 1.287090177439e+00 1.293585060640e+00 1.299953086299e+00 1.306179692505e+00 1.312264152929e+00 1.318193124950e+00 1.323967257606e+00 1.329574486374e+00 1.335016868151e+00 1.340283624493e+00 1.345378196124e+00 1.350291075246e+00 1.355027026543e+00 1.359577763117e+00 1.363949286628e+00 1.368134461416e+00 1.372140418394e+00 1.375961093777e+00 1.379604629668e+00 1.383065953315e+00 1.386354095193e+00 1.389464897462e+00 1.392408156670e+00 1.395180562635e+00 1.397792559908e+00 1.400241631192e+00 1.402538755999e+00 1.404682167777e+00 1.406683272546e+00 1.408541026490e+00 1.410267155409e+00 1.411861319796e+00 1.413335462626e+00 1.414689935586e+00 1.415936796726e+00 1.417077079721e+00 1.418122852087e+00 1.419075821922e+00 1.419947954679e+00 1.420741623682e+00 1.421468573160e+00 1.422131829185e+00 1.422742785048e+00 1.423305102697e+00 1.423829683212e+00 1.424320800175e+00 1.424788713365e+00 1.425238272205e+00 1.425678938311e+00 1.426116091444e+00 1.426558231937e+00 1.427011211881e+00 1.427482402572e+00 1.427978056754e+00 1.428504249271e+00 1.429067558048e+00 1.429672583747e+00 1.430326143532e+00 1.431031196154e+00 1.431794699582e+00 1.432617811904e+00 1.433507525487e+00 1.434463049614e+00 1.435491299514e+00 1.436589403479e+00 1.437764084992e+00 1.439010280725e+00 1.440334407850e+00 1.441729127475e+00 1.443200440014e+00 1.444738679098e+00 1.446349327392e+00 1.448020375105e+00 1.449756702016e+00 1.451543978560e+00 1.453386418328e+00 1.455267442272e+00 1.457190552781e+00 1.459137054521e+00 1.461109713141e+00 1.463087902031e+00 1.465073664207e+00 1.467044665873e+00 1.469002282062e+00 1.470922760591e+00 1.472806881891e+00 1.474629813412e+00 1.476391850522e+00 1.478067458149e+00 1.479656583426e+00 1.481133401908e+00 1.482497669923e+00 1.483723708033e+00 1.484811251294e+00 1.485735205942e+00 1.486495448069e+00 1.487067869502e+00 1.487452541981e+00 1.487626925082e+00 1.487592959465e+00 1.487328145240e+00 1.486834335715e+00 1.486093191966e+00 1.485106914251e+00 1.483859629068e+00 1.482354386979e+00 1.480578111169e+00 1.478534763532e+00 1.476214245711e+00 1.473621435660e+00 1.470749324397e+00 1.467603674687e+00 1.464180609563e+00 1.460486706622e+00 1.456521202868e+00 1.452291390845e+00 1.447799539592e+00 1.443053532467e+00 1.438058534282e+00 1.432822876325e+00 1.427354436183e+00 1.421661837076e+00 1.415755450020e+00 1.409644029033e+00 1.403340191938e+00 1.396852664441e+00 1.390196046771e+00 1.383378885901e+00 1.376417491262e+00 1.369320095379e+00 1.362104443130e+00 1.354778336243e+00 1.347360688171e+00 1.339858775462e+00 1.332292428020e+00 1.324668324401e+00 1.317006979581e+00 1.309314425924e+00 1.301611650056e+00 1.293904018501e+00 1.286212799780e+00 1.278542696040e+00 1.270915093077e+00 1.263334052440e+00 1.255820937231e+00 1.248379210595e+00 1.241030096031e+00 1.233776517387e+00 1.226639462829e+00 1.219621388698e+00 1.212742971059e+00 1.206006282010e+00 1.199431624561e+00 1.193020776395e+00 1.186793619312e+00 1.180751731514e+00 1.174914534210e+00 1.169283502823e+00 1.163877563883e+00 1.158698185917e+00 1.153763767967e+00 1.149075864105e+00 1.144652310181e+00 1.140494831888e+00 1.136620658760e+00 1.133031764418e+00 1.129744716520e+00 1.126761799122e+00 1.124098844487e+00 1.121758491313e+00 1.119755739603e+00 1.118093604276e+00 1.116786129032e+00 1.115836703235e+00 1.115258268859e+00 1.115054585163e+00 1.115237384365e+00 1.115810875148e+00 1.116785461709e+00 1.118165681602e+00 1.119960283710e+00 1.122173950540e+00 1.124813447660e+00 1.127883401707e+00 1.131388242119e+00 1.135332304757e+00 1.139717303760e+00 1.144547015676e+00 1.149820041294e+00 1.155539301958e+00 1.161699880033e+00 1.168303528265e+00 1.175341413450e+00 1.182813801156e+00 1.190707570702e+00 1.199021190431e+00 1.207736924661e+00 1.216851157352e+00 1.226341274804e+00 1.236201328107e+00 1.246403645153e+00 1.256939751837e+00 1.267776839454e+00 1.278903788274e+00 1.290282695873e+00 1.301899765330e+00 1.313712182463e+00 1.325703546501e+00 1.337826467959e+00 1.350062134820e+00 1.362359085430e+00 1.374696420677e+00 1.387019284666e+00 1.399305152709e+00 1.411496625454e+00 1.423570149386e+00 1.435466796230e+00 1.447162706411e+00 1.458598579424e+00 1.469751077179e+00 1.480561792822e+00 1.491008810137e+00 1.501035946945e+00 1.510623640323e+00 1.519719275340e+00 1.528306555377e+00 1.536337725941e+00 1.543800596853e+00 1.550653452727e+00 1.556888920256e+00 1.562472321119e+00 1.567401619176e+00 1.571649926822e+00 1.575220820820e+00 1.578095645617e+00 1.580283561755e+00 1.581774212865e+00 1.582581954038e+00 1.582704365738e+00 1.582160307814e+00 1.580954776633e+00 1.579110348139e+00 1.576638645588e+00 1.573565102820e+00 1.569907215842e+00 1.565692453063e+00 1.560943356323e+00 1.555688591965e+00 1.549954859656e+00 1.543771195037e+00 1.537167540143e+00 1.530172512928e+00 1.522818393353e+00 1.515132669759e+00 1.507149103267e+00 1.498893448092e+00 1.490400186804e+00 1.481692922451e+00 1.472806058971e+00 1.463759689551e+00 1.454588751099e+00 1.445311084311e+00 1.435959417675e+00 1.426548900537e+00 1.417110897974e+00 1.407657617665e+00 1.398218746234e+00 1.388803625818e+00 1.379440087888e+00 1.370134772534e+00 1.360913558456e+00 1.351780606020e+00 1.342759802909e+00 1.333853100280e+00 1.325082403352e+00 1.316447733448e+00 1.307969077035e+00 1.299644808179e+00 1.291493080975e+00 1.283510907487e+00 1.275714706916e+00 1.268100405393e+00 1.260682792839e+00 1.253456965722e+00 1.246436194324e+00 1.239614976287e+00 1.233005171306e+00 1.226600880829e+00 1.220412659081e+00 1.214434383544e+00 1.208675404067e+00 1.203129512139e+00 1.197804953408e+00 1.192695535818e+00 1.187808495568e+00 1.183137738344e+00 1.178689557965e+00 1.174458027718e+00 1.170448560657e+00 1.166655436116e+00 1.163083240807e+00 1.159726479109e+00 1.156588956057e+00 1.153665402929e+00 1.150958877574e+00 1.148464325804e+00 1.146184083555e+00 1.144113286953e+00 1.142253565508e+00 1.140600211868e+00 1.139154156649e+00 1.137910806468e+00 1.136870393524e+00 1.136028391161e+00 1.135384327145e+00 1.134933693773e+00 1.134675309854e+00 1.134604646828e+00 1.134719831555e+00 1.135016303727e+00 1.135491490687e+00 1.136140718245e+00 1.136960665511e+00 1.137946480888e+00 1.139094073605e+00 1.140398370770e+00 1.141854503171e+00 1.143457146501e+00 1.145200655775e+00 1.147079437759e+00 1.149087086611e+00 1.151217735940e+00 1.153464246522e+00 1.155820488024e+00 1.158278627799e+00 1.160832293875e+00 1.163473014190e+00 1.166194209551e+00 1.168986834781e+00 1.171844149565e+00 1.174756613827e+00 1.177717382417e+00 1.180716509590e+00 1.183747110206e+00 1.186798931643e+00 1.189865120843e+00 1.192935224811e+00 1.196002500456e+00 1.199056407063e+00 1.202090393446e+00 1.205093948479e+00 1.208060797075e+00 1.210980577990e+00 1.213847376863e+00 1.216651103713e+00 1.219386288332e+00 1.222043231849e+00 1.224616988649e+00 1.227098366988e+00 1.229483021925e+00 1.231762378411e+00 1.233932760718e+00 1.235986310648e+00 1.237920081393e+00 1.239727020578e+00 1.241404957584e+00 1.242947720035e+00 1.244353946892e+00 1.245618401675e+00 1.246740549810e+00 1.247716125404e+00 1.248545417374e+00 1.249225139983e+00 1.249756379494e+00 1.250136811507e+00 1.250368267729e+00 1.250449337126e+00 1.250382527040e+00 1.250167284339e+00 1.249806719192e+00 1.249301051693e+00 1.248653901125e+00 1.247866175680e+00 1.246941919921e+00 1.245882643024e+00 1.244692731640e+00 1.243374203988e+00 1.241931705967e+00 1.240367669370e+00 1.238686918329e+00 1.236892201386e+00 1.234988444183e+00 1.232978615826e+00 1.230867672909e+00 1.228658713147e+00 1.226356660627e+00 1.223964655583e+00 1.221487536335e+00 1.218928406091e+00 1.216291973360e+00 1.213581235856e+00 1.210800737957e+00 1.207953312539e+00 1.205043316909e+00 1.202073370768e+00 1.199047630585e+00 1.195968466100e+00 1.192839828297e+00 1.189663811591e+00 1.186444164857e+00 1.183182693207e+00 1.179882953755e+00 1.176546459318e+00 1.173176591570e+00 1.169774578491e+00 1.166343646089e+00 1.162884752272e+00 1.159400981732e+00 1.155893063229e+00 1.152364131569e+00 1.148814530722e+00 1.145247230982e+00 1.141662620901e+00 1.138063587894e+00 1.134450414888e+00 1.130825988522e+00 1.127190561213e+00 1.123547059727e+00 1.119895781470e+00 1.116239740622e+00 1.112579360402e+00 1.108917791280e+00 1.105255676692e+00 1.101596357228e+00 1.097940797841e+00 1.094292591560e+00 1.090653133566e+00 1.087026340426e+00 1.083414153799e+00 1.079820893179e+00 1.076249171575e+00 1.072703800249e+00 1.069188196399e+00 1.065707766158e+00 1.062266896322e+00 1.058871864730e+00 1.055529233082e+00 1.052252993032e+00 1.049094430185e+00 1.000000000000e+00 1.000000000000e+00 1.000000000000e+00 1.000000000000e+00 
1.000000000000e+00 1.000087211825e+00 1.000344676489e+00 1.000776547353e+00 1.001378151558e+00 1.002154387310e+00 1.003100751382e+00 1.004222345574e+00 1.005514838982e+00 1.006983514811e+00 1.008624168651e+00 1.010442228288e+00 1.012433566613e+00 1.014603697336e+00 1.016948500273e+00 1.019473518217e+00 1.022174550499e+00 1.025057094909e+00 1.028116778645e+00 1.031358961785e+00 1.034778997744e+00 1.038382006743e+00 1.042162954908e+00 1.046126612983e+00 1.050267437879e+00 1.054589735101e+00 1.059087325860e+00 1.063763931558e+00 1.068612611239e+00 1.073636384304e+00 1.078827426876e+00 1.084187944326e+00 1.089709120896e+00 1.095392249153e+00 1.101227427897e+00 1.107214963377e+00 1.113343793796e+00 1.119613198977e+00 1.126010915282e+00 1.132535173059e+00 1.139172520450e+00 1.145920164723e+00 1.152763496083e+00 1.159698779694e+00 1.166710338816e+00 1.173793608404e+00 1.180931987298e+00 1.188120240204e+00 1.195341023763e+00 1.202588634615e+00 1.209845207959e+00 1.217104810329e+00 1.224349302306e+00 1.231572779073e+00 1.238757093020e+00 1.245896637107e+00 1.252973523336e+00 1.259982705691e+00 1.266906814528e+00 1.273741608898e+00 1.280470470787e+00 1.287090177439e+00 1.293585060640e+00 1.299953086299e+00 1.306179692505e+00 1.312264152929e+00 1.318193124950e+00 1.323967257606e+00 1.329574486374e+00 1.335016868151e+00 1.340283624493e+00 1.345378196124e+00 1.350291075246e+00 1.355027026543e+00 1.359577763117e+00 1.363949286628e+00 1.368134461416e+00 1.372140418394e+00 1.375961093777e+00 1.379604629668e+00 1.383065953315e+00 1.386354095193e+00 1.389464897462e+00 1.392408156670e+00 1.395180562635e+00 1.397792559908e+00 1.400241631192e+00 1.402538755999e+00 1.404682167777e+00 1.406683272546e+00 1.408541026490e+00 1.410267155409e+00 1.411861319796e+00 1.413335462626e+00 1.414689935586e+00 1.415936796726e+00 1.417077079721e+00 1.418122852087e+00 1.419075821922e+00 1.419947954679e+00 1.420741623682e+00 1.421468573160e+00 1.422131829185e+00 1.422742785048e+00 1.423305102697e+00 1.423829683212e+00 1.424320800175e+00 1.424788713365e+00 1.425238272205e+00 1.425678938311e+00 1.426116091444e+00 1.426558231937e+00 1.427011211881e+00 1.427482402572e+00 1.427978056754e+00 1.428504249271e+00 1.429067558048e+00 1.429672583747e+00 1.430326143532e+00 1.431031196154e+00 1.431794699582e+00 1.432617811904e+00 1.433507525487e+00 1.434463049614e+00 1.435491299514e+00 1.436589403479e+00 1.437764084992e+00 1.439010280725e+00 1.440334407850e+00 1.441729127475e+00 1.443200440014e+00 1.444738679098e+00 1.446349327392e+00 1.448020375105e+00 1.449756702016e+00 1.451543978560e+00 1.453386418328e+00 1.455267442272e+00 1.457190552781e+00 1.459137054521e+00 1.461109713141e+00 1.463087902031e+00 1.465073664207e+00 1.467044665873e+00 1.469002282062e+00 1.470922760591e+00 1.472806881891e+00 1.474629813412e+00 1.476391850522e+00 1.478067458149e+00 1.479656583426e+00 1.481133401908e+00 1.482497669923e+00 1.483723708033e+00 1.484811251294e+00 1.485735205942e+00 1.486495448069e+00 1.487067869502e+00 1.487452541981e+00 1.487626925082e+00 1.487592959465e+00 1.487328145240e+00 1.486834335715e+00 1.486093191966e+00 1.485106914251e+00 1.483859629068e+00 1.482354386979e+00 1.480578111169e+00 1.478534763532e+00 1.476214245711e+00 1.473621435660e+00 1.470749324397e+00 1.467603674687e+00 1.464180609563e+00 1.460486706622e+00 1.456521202868e+00 1.452291390845e+00 1.447799539592e+00 1.443053532467e+00 1.438058534282e+00 1.432822876325e+00 1.427354436183e+00 1.421661837076e+00 1.415755450020e+00 1.409644029033e+00 1.403340191938e+00 1.396852664441e+00 1.390196046771e+00 1.383378885901e+00 1.376417491262e+00 1.369320095379e+00 1.362104443130e+00 1.354778336243e+00 1.347360688171e+00 1.339858775462e+00 1.332292428020e+00 1.324668324401e+00 1.317006979581e+00 1.309314425924e+00 1.301611650056e+00 1.293904018501e+00 1.286212799780e+00 1.278542696040e+00 1.270915093077e+00 1.263334052440e+00 1.255820937231e+00 1.248379210595e+00 1.241030096031e+00 1.233776517387e+00 1.226639462829e+00 1.219621388698e+00 1.212742971059e+00 1.206006282010e+00 1.199431624561e+00 1.193020776395e+00 1.186793619312e+00 1.180751731514e+00 1.174914534210e+00 1.169283502823e+00 1.163877563883e+00 1.158698185917e+00 1.153763767967e+00 1.149075864105e+00 1.144652310181e+00 1.140494831888e+00 1.136620658760e+00 1.133031764418e+00 1.129744716520e+00 1.126761799122e+00 1.124098844487e+00 1.121758491313e+00 1.119755739603e+00 1.118093604276e+00 1.116786129032e+00 1.115836703235e+00 1.115258268859e+00 1.115054585163e+00 1.115237384365e+00 1.115810875148e+00 1.116785461709e+00 1.118165681602e+00 1.119960283710e+00 1.122173950540e+00 1.124813447660e+00 1.127883401707e+00 1.131388242119e+00 1.135332304757e+00 1.139717303760e+00 1.144547015676e+00 1.149820041294e+00 1.155539301958e+00 1.161699880033e+00 1.168303528265e+00 1.175341413450e+00 1.182813801156e+00 1.190707570702e+00 1.199021190431e+00 1.207736924661e+00 1.216851157352e+00 1.226341274804e+00 1.236201328107e+00 1.246403645153e+00 1.256939751837e+00 1.267776839454e+00 1.278903788274e+00 1.290282695873e+00 1.301899765330e+00 1.313712182463e+00 1.325703546501e+00 1.337826467959e+00 1.350062134820e+00 1.362359085430e+00 1.374696420677e+00 1.387019284666e+00 1.399305152709e+00 1.411496625454e+00 1.423570149386e+00 1.435466796230e+00 1.447162706411e+00 1.458598579424e+00 1.469751077179e+00 1.480561792822e+00 1.491008810137e+00 1.501035946945e+00 1.510623640323e+00 1.519719275340e+00 1.528306555377e+00 1.536337725941e+00 1.543800596853e+00 1.550653452727e+00 1.556888920256e+00 1.562472321119e+00 1.567401619176e+00 1.571649926822e+00 1.575220820820e+00 1.578095645617e+00 1.580283561755e+00 1.581774212865e+00 1.582581954038e+00 1.582704365738e+00 1.582160307814e+00 1.580954776633e+00 1.579110348139e+00 1.576638645588e+00 1.573565102820e+00 1.569907215842e+00 1.565692453063e+00 1.560943356323e+00 1.555688591965e+00 1.549954859656e+00 1.543771195037e+00 1.537167540143e+00 1.530172512928e+00 1.522818393353e+00 1.515132669759e+00 1.507149103267e+00 1.498893448092e+00 1.490400186804e+00 1.481692922451e+00 1.472806058971e+00 1.463759689551e+00 1.454588751099e+00 1.445311084311e+00 1.435959417675e+00 1.426548900537e+00 1.417110897974e+00 1.407657617665e+00 1.398218746234e+00 1.388803625818e+00 1.379440087888e+00 1.370134772534e+00 1.360913558456e+00 1.351780606020e+00 1.342759802909e+00 1.333853100280e+00 1.325082403352e+00 1.316447733448e+00 1.307969077035e+00 1.299644808179e+00 1.291493080975e+00 1.283510907487e+00 1.275714706916e+00 1.268100405393e+00 1.260682792839e+00 1.253456965722e+00 1.246436194324e+00 1.239614976287e+00 1.233005171306e+00 1.226600880829e+00 1.220412659081e+00 1.214434383544e+00 1.208675404067e+00 1.203129512139e+00 1.197804953408e+00 1.192695535818e+00 1.187808495568e+00 1.183137738344e+00 1.178689557965e+00 1.174458027718e+00 1.170448560657e+00 1.166655436116e+00 1.163083240807e+00 1.159726479109e+00 1.156588956057e+00 1.153665402929e+00 1.150958877574e+00 1.148464325804e+00 1.146184083555e+00 1.144113286953e+00 1.142253565508e+00 1.140600211868e+00 1.139154156649e+00 1.137910806468e+00 1.136870393524e+00 1.136028391161e+00 1.135384327145e+00 1.134933693773e+00 1.134675309854e+00 1.134604646828e+00 1.134719831555e+00 1.135016303727e+00 1.135491490687e+00 1.136140718245e+00 1.136960665511e+00 1.137946480888e+00 1.139094073605e+00 1.140398370770e+00 1.141854503171e+00 1.143457146501e+00 1.145200655775e+00 1.147079437759e+00 1.149087086611e+00 1.151217735940e+00 1.153464246522e+00 1.155820488024e+00 1.158278627799e+00 1.160832293875e+00 1.163473014190e+00 1.166194209551e+00 1.168986834781e+00 1.171844149565e+00 1.174756613827e+00 1.177717382417e+00 1.180716509590e+00 1.183747110206e+00 1.186798931643e+00 1.189865120843e+00 1.192935224811e+00 1.196002500456e+00 1.199056407063e+00 1.202090393446e+00 1.205093948479e+00 1.208060797075e+00 1.210980577990e+00 1.213847376863e+00 1.216651103713e+00 1.219386288332e+00 1.222043231849e+00 1.224616988649e+00 1.227098366988e+00 1.229483021925e+00 1.231762378411e+00 1.233932760718e+00 1.235986310648e+00 1.237920081393e+00 1.239727020578e+00 1.241404957584e+00 1.242947720035e+00 1.244353946892e+00 1.245618401675e+00 1.246740549810e+00 1.247716125404e+00 1.248545417374e+00 1.249225139983e+00 1.249756379494e+00 1.250136811507e+00 1.250368267729e+00 1.250449337126e+00 1.250382527040e+00 1.250167284339e+00 1.249806719192e+00 1.249301051693e+00 1.248653901125e+00 1.247866175680e+00 1.246941919921e+00 1.245882643024e+00 1.244692731640e+00 1.243374203988e+00 1.241931705967e+00 1.240367669370e+00 1.238686918329e+00 1.236892201386e+00 1.234988444183e+00 1.232978615826e+00 1.230867672909e+00 1.228658713147e+00 1.226356660627e+00 1.223964655583e+00 1.221487536335e+00 1.218928406091e+00 1.216291973360e+00 1.213581235856e+00 1.210800737957e+00 1.207953312539e+00 1.205043316909e+00 1.202073370768e+00 1.199047630585e+00 1.195968466100e+00 1.192839828297e+00 1.189663811591e+00 1.186444164857e+00 1.183182693207e+00 1.179882953755e+00 1.176546459318e+00 1.173176591570e+00 1.169774578491e+00 1.166343646089e+00 1.162884752272e+00 1.159400981732e+00 1.155893063229e+00 1.152364131569e+00 1.148814530722e+00 1.145247230982e+00 1.141662620901e+00 1.138063587894e+00 1.134450414888e+00 1.130825988522e+00 1.127190561213e+00 1.123547059727e+00 1.119895781470e+00 1.116239740622e+00 1.112579360402e+00 1.108917791280e+00 1.105255676692e+00 1.101596357228e+00 1.097940797841e+00 1.094292591560e+00 1.090653133566e+00 1.087026340426e+00 1.083414153799e+00 1.079820893179e+00 1.076249171575e+00 1.072703800249e+00 1.069188196399e+00 1.065707766158e+00 1.062266896322e+00 1.058871864730e+00 1.055529233082e+00 1.052252993032e+00 1.049094430185e+00 1.000000000000e+00 1.000000000000e+00 1.000000000000e+00 1.000000000000e+00 
1.000000000000e+00 1.000085473545e+00 1.000345276567e+00 1.000774717985e+00 1.001378540052e+00 1.002152153781e+00 1.003100576353e+00 1.004219410234e+00 1.005513865582e+00 1.006979694136e+00 1.008622270716e+00 1.010437454338e+00 1.012430739069e+00 1.014598023774e+00 1.016944871524e+00 1.019467148492e+00 1.022170410422e+00 1.025050407157e+00 1.028112602433e+00 1.031352530012e+00 1.034775467257e+00 1.038376621169e+00 1.042160977184e+00 1.046123296488e+00 1.050268158627e+00 1.054589753453e+00 1.059092135718e+00 1.063768795479e+00 1.068623143036e+00 1.073647841502e+00 1.078845541882e+00 1.084207960092e+00 1.089736882867e+00 1.095422973666e+00 1.101267064404e+00 1.107258684885e+00 1.113397642898e+00 1.119672279347e+00 1.126081349538e+00 1.132611981250e+00 1.139261879029e+00 1.146016976784e+00 1.152873982026e+00 1.159817700659e+00 1.166843930549e+00 1.173936468169e+00 1.181090344559e+00 1.188288504484e+00 1.195525398908e+00 1.202783324382e+00 1.210056375432e+00 1.217326439540e+00 1.224587504915e+00 1.231821313899e+00 1.239022017745e+00 1.246171485550e+00 1.253264302459e+00 1.260282734057e+00 1.267222057187e+00 1.274065185816e+00 1.280808320069e+00 1.287435243339e+00 1.293943273098e+00 1.300317240967e+00 1.306555731142e+00 1.312644754601e+00 1.318584261065e+00 1.324361524464e+00 1.329977902309e+00 1.335421969886e+00 1.340696494901e+00 1.345791344363e+00 1.350710652172e+00 1.355445541113e+00 1.360001433492e+00 1.364370645416e+00 1.368559787363e+00 1.372562291626e+00 1.376385839530e+00 1.380024895392e+00 1.383488089564e+00 1.386770839002e+00 1.389882598432e+00 1.392819664238e+00 1.395592194156e+00 1.398197302854e+00 1.400645734913e+00 1.402935375009e+00 1.405077442928e+00 1.407070561515e+00 1.408926316644e+00 1.410644046334e+00 1.412235601301e+00 1.413701017955e+00 1.415052311473e+00 1.416290206701e+00 1.417426779239e+00 1.418463436712e+00 1.419412205666e+00 1.420275170359e+00 1.421064192837e+00 1.421782023932e+00 1.422440238363e+00 1.423042237180e+00 1.423599175048e+00 1.424115082540e+00 1.424600546613e+00 1.425060200259e+00 1.425503909130e+00 1.425936866827e+00 1.426368057144e+00 1.426803183265e+00 1.427250181655e+00 1.427715198892e+00 1.428204955130e+00 1.428725967727e+00 1.429283567228e+00 1.429884557994e+00 1.430532708905e+00 1.431235019444e+00 1.431993531053e+00 1.432815335035e+00 1.433700590613e+00 1.434656369919e+00 1.435680809597e+00 1.436780847019e+00 1.437952474150e+00 1.439202376648e+00 1.440524302919e+00 1.441924572685e+00 1.443394621077e+00 1.444940293347e+00 1.446550677133e+00 1.448231045231e+00 1.449968145119e+00 1.451766594636e+00 1.453610851891e+00 1.455504823836e+00 1.457430772886e+00 1.459391866669e+00 1.461368325329e+00 1.463362570100e+00 1.465352991982e+00 1.467341292191e+00 1.469304289803e+00 1.471243033526e+00 1.473133085644e+00 1.474974933686e+00 1.476743244290e+00 1.478438069456e+00 1.480033580000e+00 1.481529541930e+00 1.482900058918e+00 1.484144779215e+00 1.485238184693e+00 1.486179984793e+00 1.486945498560e+00 1.487534729781e+00 1.487924484182e+00 1.488112329024e+00 1.488082542480e+00 1.487830743770e+00 1.487339177544e+00 1.486609337483e+00 1.485624006588e+00 1.484385693784e+00 1.482879922575e+00 1.481110108099e+00 1.479064692812e+00 1.476748016820e+00 1.474151584421e+00 1.471280648227e+00 1.468129850131e+00 1.464705303050e+00 1.461004797707e+00 1.457035223908e+00 1.452797465118e+00 1.448299076375e+00 1.443543921064e+00 1.438540083304e+00 1.433294243201e+00 1.427814861941e+00 1.422111231608e+00 1.416192029806e+00 1.410068923012e+00 1.403750643334e+00 1.397250971682e+00 1.390578538062e+00 1.383748965259e+00 1.376770636355e+00 1.369660739601e+00 1.362427283130e+00 1.355088748617e+00 1.347652662276e+00 1.340138537297e+00 1.332553335236e+00 1.324917355179e+00 1.317236935149e+00 1.309532937520e+00 1.301811040798e+00 1.294092469281e+00 1.286382233842e+00 1.278701743432e+00 1.271055354681e+00 1.263464509162e+00 1.255932942720e+00 1.248482002013e+00 1.241114853483e+00 1.233852643518e+00 1.226698035718e+00 1.219671891291e+00 1.212776449388e+00 1.206032218226e+00 1.199441099976e+00 1.193023196897e+00 1.186780167433e+00 1.180731665410e+00 1.174879202307e+00 1.169241948158e+00 1.163821364753e+00 1.158636106312e+00 1.153687680157e+00 1.148994191899e+00 1.144557284861e+00 1.140394478202e+00 1.136507633927e+00 1.132913637277e+00 1.129614640329e+00 1.126626832197e+00 1.123952710910e+00 1.121607686972e+00 1.119594640303e+00 1.117928095737e+00 1.116611328960e+00 1.115657848077e+00 1.115071323365e+00 1.114864109564e+00 1.115040288842e+00 1.115610951029e+00 1.116580581650e+00 1.117958775311e+00 1.119750269880e+00 1.121962848023e+00 1.124601311707e+00 1.127671289699e+00 1.131177426878e+00 1.135122828797e+00 1.139511727129e+00 1.144344311410e+00 1.149624112796e+00 1.155347998424e+00 1.161518488588e+00 1.168128721978e+00 1.175179885828e+00 1.182661001188e+00 1.190571601775e+00 1.198896236665e+00 1.207632482274e+00 1.216760115577e+00 1.226274483197e+00 1.236150365215e+00 1.246380652575e+00 1.256934996638e+00 1.267803671494e+00 1.278951179958e+00 1.290365098408e+00 1.302004891627e+00 1.313855454294e+00 1.325871470630e+00 1.338035281636e+00 1.350297209547e+00 1.362637296660e+00 1.375002094418e+00 1.387369736675e+00 1.399683769470e+00 1.411920945494e+00 1.424022743201e+00 1.435965196494e+00 1.447688809212e+00 1.459169677860e+00 1.470348553330e+00 1.481202468483e+00 1.491673733679e+00 1.501741247519e+00 1.511350233828e+00 1.520482395748e+00 1.529087208380e+00 1.537150074647e+00 1.544625978420e+00 1.551504818076e+00 1.557748196388e+00 1.563351148028e+00 1.568282792083e+00 1.572543719651e+00 1.576111187943e+00 1.578991494537e+00 1.581170312715e+00 1.582659462780e+00 1.583452906885e+00 1.583567422569e+00 1.583004701875e+00 1.581785602275e+00 1.579918804656e+00 1.577428440886e+00 1.574329477773e+00 1.570648514424e+00 1.566406007416e+00 1.561630187858e+00 1.556346129156e+00 1.550582849703e+00 1.544369120761e+00 1.537733927625e+00 1.530708813295e+00 1.523321969399e+00 1.515606814932e+00 1.507590076074e+00 1.499306207372e+00 1.490779871645e+00 1.482045667768e+00 1.473127648939e+00 1.464056458619e+00 1.454854821639e+00 1.445555145957e+00 1.436174152924e+00 1.426744090397e+00 1.417278603747e+00 1.407808328427e+00 1.398343977199e+00 1.388914376467e+00 1.379527440602e+00 1.370210057249e+00 1.360967542034e+00 1.351824780242e+00 1.342784742954e+00 1.333870304826e+00 1.325082361537e+00 1.316441828234e+00 1.307947810951e+00 1.299619337284e+00 1.291454018160e+00 1.283469083674e+00 1.275660935054e+00 1.268045109859e+00 1.260617065410e+00 1.253390759728e+00 1.246360947246e+00 1.239540121296e+00 1.232922546853e+00 1.226519364477e+00 1.220324534523e+00 1.214347949675e+00 1.208583422694e+00 1.203039693583e+00 1.197710555476e+00 1.192603685427e+00 1.187712948759e+00 1.183045051747e+00 1.178593995362e+00 1.174365580324e+00 1.170353999880e+00 1.166564206132e+00 1.162990612185e+00 1.159637370959e+00 1.156499125136e+00 1.153579267363e+00 1.150872664378e+00 1.148381978148e+00 1.146102280427e+00 1.144035523178e+00 1.142176953006e+00 1.140527823781e+00 1.139083518398e+00 1.137844595525e+00 1.136806530104e+00 1.135969183237e+00 1.135328073405e+00 1.134882358446e+00 1.134627556593e+00 1.134562124311e+00 1.134681549988e+00 1.134983593976e+00 1.135463662199e+00 1.136118783271e+00 1.136944212255e+00 1.137936216979e+00 1.139089849532e+00 1.140400601671e+00 1.141863285109e+00 1.143472612314e+00 1.145223130797e+00 1.147108782143e+00 1.149123838687e+00 1.151261492498e+00 1.153515743448e+00 1.155879067777e+00 1.158345209146e+00 1.160905975778e+00 1.163554883651e+00 1.166283133290e+00 1.169084054039e+00 1.171948311638e+00 1.174869100423e+00 1.177836635983e+00 1.180844038265e+00 1.183881167455e+00 1.186941137929e+00 1.190013557388e+00 1.193091610153e+00 1.196164761163e+00 1.199226345036e+00 1.202265799085e+00 1.205276691643e+00 1.208248551235e+00 1.211175264703e+00 1.214046572752e+00 1.216856764779e+00 1.219595915174e+00 1.222258797788e+00 1.224835939080e+00 1.227322675870e+00 1.229710099821e+00 1.231994183714e+00 1.234166689963e+00 1.236224291985e+00 1.238159518211e+00 1.239969796596e+00 1.241648504058e+00 1.243193864813e+00 1.244600169736e+00 1.245866465455e+00 1.246988003705e+00 1.247964661437e+00 1.248792674686e+00 1.249472737925e+00 1.250002068145e+00 1.250382139925e+00 1.250611118509e+00 1.250691195620e+00 1.250621425238e+00 1.250404636065e+00 1.250040694409e+00 1.249532981049e+00 1.248882094124e+00 1.248091882908e+00 1.247163592363e+00 1.246101456907e+00 1.244907277968e+00 1.243585591684e+00 1.242138660945e+00 1.240571241080e+00 1.238885959171e+00 1.237087709886e+00 1.235179387550e+00 1.233165951561e+00 1.231050468524e+00 1.228837894978e+00 1.226531379746e+00 1.224135818446e+00 1.221654358360e+00 1.219091784793e+00 1.216451170008e+00 1.213737149627e+00 1.210952655879e+00 1.208102146727e+00 1.205188360580e+00 1.202215558999e+00 1.199186244446e+00 1.196104472798e+00 1.192972479717e+00 1.189794114994e+00 1.186571327957e+00 1.183307769373e+00 1.180005094067e+00 1.176666767286e+00 1.173294152098e+00 1.169890547315e+00 1.166457038850e+00 1.162996788438e+00 1.159510649645e+00 1.156001363364e+00 1.152470193096e+00 1.148919514188e+00 1.145349962005e+00 1.141764408459e+00 1.138163161394e+00 1.134549089619e+00 1.130922438574e+00 1.127286095245e+00 1.123640310179e+00 1.119988031383e+00 1.116329592948e+00 1.112668049422e+00 1.109003907645e+00 1.105340381443e+00 1.101678245648e+00 1.098020932558e+00 1.094369589760e+00 1.090727934200e+00 1.087097599339e+00 1.083482660981e+00 1.079885359655e+00 1.076310213809e+00 1.072760199605e+00 1.069240372684e+00 1.065754584719e+00 1.062308560934e+00 1.058907340907e+00 1.055558507776e+00 1.052275190733e+00 1.049109454981e+00 1.000000000000e+00 1.000000000000e+00 1.000000000000e+00 1.000000000000e+00 