# vtk DataFile Version 3.0
Vortex Output
ASCII
DATASET STRUCTURED_POINTS
FIELD FieldData 2
TIME 1 1 double
5.000000
CYCLE 1 1 int
2000
DIMENSIONS 514 130 1
ORIGIN 0 0 0
SPACING 1 1 1
POINT_DATA 66820
SCALARS u double 1
LOOKUP_TABLE default
1.000081879848e+00 1.000081879848e+00 1.000328913586e+00 1.000740474274e+00 1.001318384789e+00 1.002062113355e+00 1.002973731222e+00 1.004052914709e+00 1.005301954197e+00 1.006720694084e+00 1.008311609208e+00 1.010074660219e+00 1.012012458929e+00 1.014125017485e+00 1.016415024444e+00 1.018882466009e+00 1.021530034792e+00 1.024357601312e+00 1.027367777611e+00 1.030560217212e+00 1.033937355968e+00 1.037498518730e+00 1.041245860051e+00 1.045178255942e+00 1.049297467277e+00 1.053601795233e+00 1.058092490429e+00 1.062767150936e+00 1.067626400357e+00 1.072667007639e+00 1.077888857380e+00 1.083287771087e+00 1.088862793011e+00 1.094608692865e+00 1.100523590427e+00 1.106601120069e+00 1.112838417158e+00 1.119227924992e+00 1.125765765687e+00 1.132443170217e+00 1.139255255974e+00 1.146192060511e+00 1.153247747334e+00 1.160411223627e+00 1.167675795063e+00 1.175029347260e+00 1.182464469551e+00 1.189968179211e+00 1.197532533222e+00 1.205143873494e+00 1.212793944820e+00 1.220468638491e+00 1.228159633885e+00 1.235852617176e+00 1.243539463453e+00 1.251205906782e+00 1.258844279376e+00 1.266440609266e+00 1.273987932855e+00 1.281472796949e+00 1.288889160935e+00 1.296224281085e+00 1.303473218420e+00 1.310624085020e+00 1.317673173227e+00 1.324609546261e+00 1.331430803434e+00 1.338127000728e+00 1.344697064921e+00 1.351132033942e+00 1.357432129962e+00 1.363589314390e+00 1.369605025826e+00 1.375472050574e+00 1.381192925690e+00 1.386761133010e+00 1.392180160231e+00 1.397444034757e+00 1.402557026788e+00 1.407513548900e+00 1.412318474475e+00 1.416966439933e+00 1.421462739552e+00 1.425802079719e+00 1.429989997388e+00 1.434021129535e+00 1.437901087355e+00 1.441624319212e+00 1.445196356377e+00 1.448611363950e+00 1.451874656786e+00 1.454980049846e+00 1.457932525241e+00 1.460725510911e+00 1.463363561831e+00 1.465839713374e+00 1.468158022083e+00 1.470311157093e+00 1.472302628935e+00 1.474124798461e+00 1.475780606401e+00 1.477262193823e+00 1.478571931102e+00 1.479701856512e+00 1.480653791406e+00 1.481419813472e+00 1.482001235571e+00 1.482390336850e+00 1.482587975971e+00 1.482586807871e+00 1.482387328324e+00 1.481982820891e+00 1.481373550562e+00 1.480553632557e+00 1.479523185698e+00 1.478277359116e+00 1.476816229104e+00 1.475136182915e+00 1.473237359282e+00 1.471117576490e+00 1.468777136858e+00 1.466215465164e+00 1.463433119688e+00 1.460431282955e+00 1.457210848483e+00 1.453774878281e+00 1.450124664029e+00 1.446265235217e+00 1.442198325883e+00 1.437930984360e+00 1.433465411304e+00 1.428810687203e+00 1.423969483603e+00 1.418952888458e+00 1.413764029574e+00 1.408415941121e+00 1.402912175731e+00 1.397267618649e+00 1.391486202016e+00 1.385584536774e+00 1.379566878886e+00 1.373451413739e+00 1.367242658908e+00 1.360960201868e+00 1.354608756998e+00 1.348209125293e+00 1.341766154278e+00 1.335301658434e+00 1.328820559315e+00 1.322345477745e+00 1.315881357604e+00 1.309451415617e+00 1.303060575902e+00 1.296732440480e+00 1.290471882745e+00 1.284302681611e+00 1.278229640663e+00 1.272276511102e+00 1.266448019527e+00 1.260767689425e+00 1.255240174440e+00 1.249888575050e+00 1.244717485826e+00 1.239749393045e+00 1.234988853923e+00 1.230457552229e+00 1.226160034728e+00 1.222116995426e+00 1.218332999385e+00 1.214827562194e+00 1.211605293711e+00 1.208684337893e+00 1.206069368612e+00 1.203776956406e+00 1.201811844898e+00 1.200188815898e+00 1.198912667965e+00 1.197996161044e+00 1.197444110768e+00 1.197267017523e+00 1.197469712284e+00 1.198060316825e+00 1.199043716562e+00 1.200425386646e+00 1.202210106969e+00 1.204400393062e+00 1.207000760238e+00 1.210010459416e+00 1.213433560746e+00 1.217265745190e+00 1.221510432649e+00 1.226159434119e+00 1.231215294577e+00 1.236665671250e+00 1.242511998876e+00 1.248737527530e+00 1.255342347858e+00 1.262305096547e+00 1.269624302359e+00 1.277273847947e+00 1.285250514810e+00 1.293523375622e+00 1.302087328773e+00 1.310906684334e+00 1.319974388021e+00 1.329250154731e+00 1.338724989354e+00 1.348354312528e+00 1.358127293705e+00 1.367995502387e+00 1.377946479372e+00 1.387928531054e+00 1.397927880178e+00 1.407890298606e+00 1.417801101566e+00 1.427604383411e+00 1.437285051641e+00 1.446786488558e+00 1.456093765468e+00 1.465150598885e+00 1.473942843350e+00 1.482415642320e+00 1.490556271648e+00 1.498312401195e+00 1.505673351563e+00 1.512590381811e+00 1.519055430338e+00 1.525024326396e+00 1.530492112397e+00 1.535420042116e+00 1.539806626001e+00 1.543619227502e+00 1.546860034523e+00 1.549502998292e+00 1.551554012038e+00 1.552993856715e+00 1.553831963944e+00 1.554055955496e+00 1.553678567543e+00 1.552694334211e+00 1.551119057929e+00 1.548953814552e+00 1.546216867830e+00 1.542915366023e+00 1.539069490808e+00 1.534691940243e+00 1.529804262545e+00 1.524424114745e+00 1.518573855339e+00 1.512275454502e+00 1.505551535446e+00 1.498427701714e+00 1.490926324325e+00 1.483075949354e+00 1.474898224752e+00 1.466423959518e+00 1.457673668635e+00 1.448679775512e+00 1.439461324475e+00 1.430051752231e+00 1.420468373926e+00 1.410745098085e+00 1.400897333943e+00 1.390958988014e+00 1.380943467298e+00 1.370884274168e+00 1.360792792601e+00 1.350701790923e+00 1.340620677252e+00 1.330581225741e+00 1.320590974215e+00 1.310680507582e+00 1.300855646621e+00 1.291145650543e+00 1.281554812835e+00 1.272110981655e+00 1.262817138409e+00 1.253699677802e+00 1.244760499370e+00 1.236024536589e+00 1.227492842782e+00 1.219188908788e+00 1.211113174396e+00 1.203287724791e+00 1.195712608658e+00 1.188408553331e+00 1.181375422442e+00 1.174632636976e+00 1.168180060053e+00 1.162035854799e+00 1.156200042546e+00 1.150689567672e+00 1.145504738895e+00 1.140661305464e+00 1.136159959647e+00 1.132015257714e+00 1.128228335280e+00 1.124812530459e+00 1.121769442297e+00 1.119111132808e+00 1.116839642071e+00 1.114965661418e+00 1.113491606748e+00 1.112426668789e+00 1.111773540031e+00 1.111539765481e+00 1.111728234552e+00 1.112344759607e+00 1.113392311736e+00 1.114874684819e+00 1.116794617838e+00 1.119153548893e+00 1.121953680796e+00 1.125193765724e+00 1.128875161529e+00 1.132993608954e+00 1.137549316184e+00 1.142534711075e+00 1.147948583114e+00 1.153779831194e+00 1.160024011443e+00 1.166669821957e+00 1.173709074783e+00 1.181124007121e+00 1.188907672779e+00 1.197037140635e+00 1.205503370613e+00 1.214279454199e+00 1.223354195912e+00 1.232696810962e+00 1.242293993304e+00 1.252111280138e+00 1.262133365724e+00 1.272322395281e+00 1.282661237301e+00 1.293109018251e+00 1.303647018586e+00 1.314231807589e+00 1.324843381853e+00 1.335436305203e+00 1.345989664380e+00 1.356456660638e+00 1.366815917056e+00 1.377020004540e+00 1.387047600010e+00 1.396851458849e+00 1.406410894549e+00 1.415679731011e+00 1.424638553419e+00 1.433243186393e+00 1.441476154037e+00 1.449296233155e+00 1.456688558569e+00 1.463615794046e+00 1.470066327683e+00 1.476007586725e+00 1.481431787216e+00 1.486311892510e+00 1.490644411113e+00 1.494408462317e+00 1.497605155050e+00 1.500220177290e+00 1.502259334352e+00 1.503715020350e+00 1.504597542715e+00 1.504905763001e+00 1.504653887695e+00 1.503846571100e+00 1.502501128336e+00 1.500627403169e+00 1.498245216089e+00 1.495369040320e+00 1.492020585283e+00 1.488218313740e+00 1.483985165941e+00 1.479342889540e+00 1.474314982349e+00 1.468925739768e+00 1.463198561323e+00 1.457159555481e+00 1.450831415982e+00 1.444241363791e+00 1.437410852960e+00 1.430367575860e+00 1.423131304330e+00 1.415729638552e+00 1.408180326961e+00 1.400510402088e+00 1.392735351760e+00 1.384881257441e+00 1.376961209529e+00 1.369000045392e+00 1.361008413059e+00 1.353009697145e+00 1.345012138276e+00 1.337037535045e+00 1.329091821568e+00 1.321195141846e+00 1.313351275577e+00 1.305578696950e+00 1.297879220035e+00 1.290269676136e+00 1.282750125728e+00 1.275335815902e+00 1.268025276918e+00 1.260832252833e+00 1.253753968382e+00 1.246802760426e+00 1.239974766125e+00 1.233281019236e+00 1.226716774467e+00 1.220291869779e+00 1.214000865420e+00 1.207852510275e+00 1.201840838259e+00 1.195973612576e+00 1.190244487684e+00 1.184660339299e+00 1.179214567730e+00 1.173913252997e+00 1.168749645480e+00 1.163729114205e+00 1.158844843846e+00 1.154101569724e+00 1.149492476519e+00 1.145021735675e+00 1.140682580824e+00 1.136478682021e+00 1.132403355889e+00 1.128459826512e+00 1.124641514546e+00 1.120951246791e+00 1.117382557857e+00 1.113937919644e+00 1.110610981318e+00 1.107403896440e+00 1.104310421728e+00 1.101332423678e+00 1.098463753537e+00 1.095706017292e+00 1.093053143134e+00 1.090506498988e+00 1.088060069149e+00 1.085715002430e+00 1.083465316315e+00 1.081311956595e+00 1.079248950009e+00 1.077277053221e+00 1.075390278201e+00 1.073589204828e+00 1.071867807004e+00 1.070226499245e+00 1.068659195506e+00 1.067166156039e+00 1.065741214970e+00 1.064384489596e+00 1.063089716822e+00 1.061856883082e+00 1.060679613701e+00 1.059557777729e+00 1.058484878044e+00 1.057460681637e+00 1.056478561819e+00 1.055538201050e+00 1.054632840067e+00 1.053762097070e+00 1.052919081841e+00 1.052103371913e+00 1.051307952830e+00 1.050532388858e+00 1.049769553605e+00 1.049019029856e+00 1.048273597819e+00 1.047532895659e+00 1.046789635717e+00 1.046043554268e+00 1.045287329258e+00 1.044520844634e+00 1.043736786489e+00 1.042935243974e+00 1.042108964283e+00 1.041258308595e+00 1.040376150136e+00 1.039463199807e+00 1.038512535563e+00 1.037525308330e+00 1.036494895199e+00 1.035422991945e+00 1.034303387061e+00 1.033138442668e+00 1.031922491066e+00 1.030658701077e+00 1.029342103628e+00 1.027976835677e+00 1.026558806262e+00 1.025093305179e+00 1.023577325737e+00 1.022017520211e+00 1.020412200173e+00 1.018769615617e+00 1.017089658139e+00 1.015382435629e+00 1.013649707657e+00 1.011903723111e+00 1.010148423276e+00 1.008398521133e+00 1.006660604758e+00 1.004952983374e+00 1.003290031621e+00 1.001721931904e+00 1.000000000000e+00 1.000000000000e+00 1.000000000000e+00 1.000000000000e+00 
1.000000000000e+00 1.000081879848e+00 1.000328913586e+00 1.000740474274e+00 1.001318384789e+00 1.002062113355e+00 1.002973731222e+00 1.004052914709e+00 1.005301954197e+00 1.006720694084e+00 1.008311609208e+00 1.010074660219e+00 1.012012458929e+00 1.014125017485e+00 1.016415024444e+00 1.018882466009e+00 1.021530034792e+00 1.024357601312e+00 1.027367777611e+00 1.030560217212e+00 1.033937355968e+00 1.037498518730e+00 1.041245860051e+00 1.045178255942e+00 1.049297467277e+00 1.053601795233e+00 1.058092490429e+00 1.062767150936e+00 1.067626400357e+00 1.072667007639e+00 1.077888857380e+00 1.083287771087e+00 1.088862793011e+00 1.094608692865e+00 1.100523590427e+00 1.106601120069e+00 1.112838417158e+00 1.119227924992e+00 1.125765765687e+00 1.132443170217e+00 1.139255255974e+00 1.146192060511e+00 1.153247747334e+00 1.160411223627e+00 1.167675795063e+00 1.175029347260e+00 1.182464469551e+00 1.189968179211e+00 1.197532533222e+00 1.205143873494e+00 1.212793944820e+00 1.220468638491e+00 1.228159633885e+00 1.235852617176e+00 1.243539463453e+00 1.251205906782e+00 1.258844279376e+00 1.266440609266e+00 1.273987932855e+00 1.281472796949e+00 1.288889160935e+00 1.296224281085e+00 1.303473218420e+00 1.310624085020e+00 1.317673173227e+00 1.324609546261e+00 1.331430803434e+00 1.338127000728e+00 1.344697064921e+00 1.351132033942e+00 1.357432129962e+00 1.363589314390e+00 1.369605025826e+00 1.375472050574e+00 1.381192925690e+00 1.386761133010e+00 1.392180160231e+00 1.397444034757e+00 1.402557026788e+00 1.407513548900e+00 1.412318474475e+00 1.416966439933e+00 1.421462739552e+00 1.425802079719e+00 1.429989997388e+00 1.434021129535e+00 1.437901087355e+00 1.441624319212e+00 1.445196356377e+00 1.448611363950e+00 1.451874656786e+00 1.454980049846e+00 1.457932525241e+00 1.460725510911e+00 1.463363561831e+00 1.465839713374e+00 1.468158022083e+00 1.470311157093e+00 1.472302628935e+00 1.474124798461e+00 1.475780606401e+00 1.477262193823e+00 1.478571931102e+00 1.479701856512e+00 1.480653791406e+00 1.481419813472e+00 1.482001235571e+00 1.482390336850e+00 1.482587975971e+00 1.482586807871e+00 1.482387328324e+00 1.481982820891e+00 1.481373550562e+00 1.480553632557e+00 1.479523185698e+00 1.478277359116e+00 1.476816229104e+00 1.475136182915e+00 1.473237359282e+00 1.471117576490e+00 1.468777136858e+00 1.466215465164e+00 1.463433119688e+00 1.460431282955e+00 1.457210848483e+00 1.453774878281e+00 1.450124664029e+00 1.446265235217e+00 1.442198325883e+00 1.437930984360e+00 1.433465411304e+00 1.428810687203e+00 1.423969483603e+00 1.418952888458e+00 1.413764029574e+00 1.408415941121e+00 1.402912175731e+00 1.397267618649e+00 1.391486202016e+00 1.385584536774e+00 1.379566878886e+00 1.373451413739e+00 1.367242658908e+00 1.360960201868e+00 1.354608756998e+00 1.348209125293e+00 1.341766154278e+00 1.335301658434e+00 1.328820559315e+00 1.322345477745e+00 1.315881357604e+00 1.309451415617e+00 1.303060575902e+00 1.296732440480e+00 1.290471882745e+00 1.284302681611e+00 1.278229640663e+00 1.272276511102e+00 1.266448019527e+00 1.260767689425e+00 1.255240174440e+00 1.249888575050e+00 1.244717485826e+00 1.239749393045e+00 1.234988853923e+00 1.230457552229e+00 1.226160034728e+00 1.222116995426e+00 1.218332999385e+00 1.214827562194e+00 1.211605293711e+00 1.208684337893e+00 1.206069368612e+00 1.203776956406e+00 1.201811844898e+00 1.200188815898e+00 1.198912667965e+00 1.197996161044e+00 1.197444110768e+00 1.197267017523e+00 1.197469712284e+00 1.198060316825e+00 1.199043716562e+00 1.200425386646e+00 1.202210106969e+00 1.204400393062e+00 1.207000760238e+00 1.210010459416e+00 1.213433560746e+00 1.217265745190e+00 1.221510432649e+00 1.226159434119e+00 1.231215294577e+00 1.236665671250e+00 1.242511998876e+00 1.248737527530e+00 1.255342347858e+00 1.262305096547e+00 1.269624302359e+00 1.277273847947e+00 1.285250514810e+00 1.293523375622e+00 1.302087328773e+00 1.310906684334e+00 1.319974388021e+00 1.329250154731e+00 1.338724989354e+00 1.348354312528e+00 1.358127293705e+00 1.367995502387e+00 1.377946479372e+00 1.387928531054e+00 1.397927880178e+00 1.407890298606e+00 1.417801101566e+00 1.427604383411e+00 1.437285051641e+00 1.446786488558e+00 1.456093765468e+00 1.465150598885e+00 1.473942843350e+00 1.482415642320e+00 1.490556271648e+00 1.498312401195e+00 1.505673351563e+00 1.512590381811e+00 1.519055430338e+00 1.525024326396e+00 1.530492112397e+00 1.535420042116e+00 1.539806626001e+00 1.543619227502e+00 1.546860034523e+00 1.549502998292e+00 1.551554012038e+00 1.552993856715e+00 1.553831963944e+00 1.554055955496e+00 1.553678567543e+00 1.552694334211e+00 1.551119057929e+00 1.548953814552e+00 1.546216867830e+00 1.542915366023e+00 1.539069490808e+00 1.534691940243e+00 1.529804262545e+00 1.524424114745e+00 1.518573855339e+00 1.512275454502e+00 1.505551535446e+00 1.498427701714e+00 1.490926324325e+00 1.483075949354e+00 1.474898224752e+00 1.466423959518e+00 1.457673668635e+00 1.448679775512e+00 1.439461324475e+00 1.430051752231e+00 1.420468373926e+00 1.410745098085e+00 1.400897333943e+00 1.390958988014e+00 1.380943467298e+00 1.370884274168e+00 1.360792792601e+00 1.350701790923e+00 1.340620677252e+00 1.330581225741e+00 1.320590974215e+00 1.310680507582e+00 1.300855646621e+00 1.291145650543e+00 1.281554812835e+00 1.272110981655e+00 1.262817138409e+00 1.253699677802e+00 1.244760499370e+00 1.236024536589e+00 1.227492842782e+00 1.219188908788e+00 1.211113174396e+00 1.203287724791e+00 1.195712608658e+00 1.188408553331e+00 1.181375422442e+00 1.174632636976e+00 1.168180060053e+00 1.162035854799e+00 1.156200042546e+00 1.150689567672e+00 1.145504738895e+00 1.140661305464e+00 1.136159959647e+00 1.132015257714e+00 1.128228335280e+00 1.124812530459e+00 1.121769442297e+00 1.119111132808e+00 1.116839642071e+00 1.114965661418e+00 1.113491606748e+00 1.112426668789e+00 1.111773540031e+00 1.111539765481e+00 1.111728234552e+00 1.112344759607e+00 1.113392311736e+00 1.114874684819e+00 1.116794617838e+00 1.119153548893e+00 1.121953680796e+00 1.125193765724e+00 1.128875161529e+00 1.132993608954e+00 1.137549316184e+00 1.142534711075e+00 1.147948583114e+00 1.153779831194e+00 1.160024011443e+00 1.166669821957e+00 1.173709074783e+00 1.181124007121e+00 1.188907672779e+00 1.197037140635e+00 1.205503370613e+00 1.214279454199e+00 1.223354195912e+00 1.232696810962e+00 1.242293993304e+00 1.252111280138e+00 1.262133365724e+00 1.272322395281e+00 1.282661237301e+00 1.293109018251e+00 1.303647018586e+00 1.314231807589e+00 1.324843381853e+00 1.335436305203e+00 1.345989664380e+00 1.356456660638e+00 1.366815917056e+00 1.377020004540e+00 1.387047600010e+00 1.396851458849e+00 1.406410894549e+00 1.415679731011e+00 1.424638553419e+00 1.433243186393e+00 1.441476154037e+00 1.449296233155e+00 1.456688558569e+00 1.463615794046e+00 1.470066327683e+00 1.476007586725e+00 1.481431787216e+00 1.486311892510e+00 1.490644411113e+00 1.494408462317e+00 1.497605155050e+00 1.500220177290e+00 1.502259334352e+00 1.503715020350e+00 1.504597542715e+00 1.504905763001e+00 1.504653887695e+00 1.503846571100e+00 1.502501128336e+00 1.500627403169e+00 1.498245216089e+00 1.495369040320e+00 1.492020585283e+00 1.488218313740e+00 1.483985165941e+00 1.479342889540e+00 1.474314982349e+00 1.468925739768e+00 1.463198561323e+00 1.457159555481e+00 1.450831415982e+00 1.444241363791e+00 1.437410852960e+00 1.430367575860e+00 1.423131304330e+00 1.415729638552e+00 1.408180326961e+00 1.400510402088e+00 1.392735351760e+00 1.384881257441e+00 1.376961209529e+00 1.369000045392e+00 1.361008413059e+00 1.353009697145e+00 1.345012138276e+00 1.337037535045e+00 1.329091821568e+00 1.321195141846e+00 1.313351275577e+00 1.305578696950e+00 1.297879220035e+00 1.290269676136e+00 1.282750125728e+00 1.275335815902e+00 1.268025276918e+00 1.260832252833e+00 1.253753968382e+00 1.246802760426e+00 1.239974766125e+00 1.233281019236e+00 1.226716774467e+00 1.220291869779e+00 1.214000865420e+00 1.207852510275e+00 1.201840838259e+00 1.195973612576e+00 1.190244487684e+00 1.184660339299e+00 1.179214567730e+00 1.173913252997e+00 1.168749645480e+00 1.163729114205e+00 1.158844843846e+00 1.154101569724e+00 1.149492476519e+00 1.145021735675e+00 1.140682580824e+00 1.136478682021e+00 1.132403355889e+00 1.128459826512e+00 1.124641514546e+00 1.120951246791e+00 1.117382557857e+00 1.113937919644e+00 1.110610981318e+00 1.107403896440e+00 1.104310421728e+00 1.101332423678e+00 1.098463753537e+00 1.095706017292e+00 1.093053143134e+00 1.090506498988e+00 1.088060069149e+00 1.085715002430e+00 1.083465316315e+00 1.081311956595e+00 1.079248950009e+00 1.077277053221e+00 1.075390278201e+00 1.073589204828e+00 1.071867807004e+00 1.070226499245e+00 1.068659195506e+00 1.067166156039e+00 1.065741214970e+00 1.064384489596e+00 1.063089716822e+00 1.061856883082e+00 1.060679613701e+00 1.059557777729e+00 1.058484878044e+00 1.057460681637e+00 1.056478561819e+00 1.055538201050e+00 1.054632840067e+00 1.053762097070e+00 1.052919081841e+00 1.052103371913e+00 1.051307952830e+00 1.050532388858e+00 1.049769553605e+00 1.049019029856e+00 1.048273597819e+00 1.047532895659e+00 1.046789635717e+00 1.046043554268e+00 1.045287329258e+00 1.044520844634e+00 1.043736786489e+00 1.042935243974e+00 1.042108964283e+00 1.041258308595e+00 1.040376150136e+00 1.039463199807e+00 1.038512535563e+00 1.037525308330e+00 1.036494895199e+00 1.035422991945e+00 1.034303387061e+00 1.033138442668e+00 1.031922491066e+00 1.030658701077e+00 1.029342103628e+00 1.027976835677e+00 1.026558806262e+00 1.025093305179e+00 1.023577325737e+00 1.022017520211e+00 1.020412200173e+00 1.018769615617e+00 1.017089658139e+00 1.015382435629e+00 1.013649707657e+00 1.011903723111e+00 1.010148423276e+00 1.008398521133e+00 1.006660604758e+00 1.004952983374e+00 1.003290031621e+00 1.001721931904e+00 1.000000000000e+00 1.000000000000e+00 1.000000000000e+00 1.000000000000e+00 
1.000000000000e+00 1.000082297200e+00 1.000328600492e+00 1.000740583808e+00 1.001317616023e+00 1.002061651377e+00 1.002972269910e+00 1.004051661476e+00 1.005299600123e+00 1.006718484186e+00 1.008308235364e+00 1.010071418516e+00 1.012008044036e+00 1.014120789006e+00 1.016409681085e+00 1.018877442839e+00 1.021524035306e+00 1.024352147558e+00 1.027361578073e+00 1.030554891819e+00 1.033931617609e+00 1.037494095221e+00 1.041241467001e+00 1.045175737771e+00 1.049295539135e+00 1.053602425121e+00 1.058094387908e+00 1.062772412344e+00 1.067633722130e+00 1.072678616484e+00 1.077903426216e+00 1.083307655871e+00 1.088886629521e+00 1.094638961708e+00 1.100558873167e+00 1.106644013741e+00 1.112887428564e+00 1.119285755861e+00 1.125830824303e+00 1.132518248194e+00 1.139338636702e+00 1.146286608386e+00 1.153351592808e+00 1.160527285629e+00 1.167802022670e+00 1.175168696001e+00 1.182614679859e+00 1.190132227258e+00 1.197707926382e+00 1.205333596342e+00 1.212995251787e+00 1.220684515621e+00 1.228387068759e+00 1.236094596943e+00 1.243792701958e+00 1.251473399208e+00 1.259122466449e+00 1.266732508505e+00 1.274289719804e+00 1.281787532496e+00 1.289212769901e+00 1.296559894186e+00 1.303816529361e+00 1.310978324409e+00 1.318033826707e+00 1.324979975838e+00 1.331806311342e+00 1.338511111085e+00 1.345084921070e+00 1.351527349932e+00 1.357829913216e+00 1.363993492028e+00 1.370010489805e+00 1.375882958185e+00 1.381604070930e+00 1.387176913507e+00 1.392595286628e+00 1.397863147786e+00 1.402974765929e+00 1.407934793246e+00 1.412737802907e+00 1.417388957776e+00 1.421882975002e+00 1.426225345111e+00 1.430410780511e+00 1.434444923775e+00 1.438322351723e+00 1.442048695815e+00 1.445618289284e+00 1.449036605667e+00 1.452297653188e+00 1.455406619881e+00 1.458357136782e+00 1.461154000158e+00 1.463790442646e+00 1.466270785238e+00 1.468587872847e+00 1.470745491323e+00 1.472736140559e+00 1.474563035416e+00 1.476218404837e+00 1.477704880682e+00 1.479014524882e+00 1.480149397271e+00 1.481101524056e+00 1.481872425326e+00 1.482454246520e+00 1.482848018895e+00 1.483046181343e+00 1.483049345786e+00 1.482850447135e+00 1.482449790200e+00 1.481841038511e+00 1.481024296774e+00 1.479994164605e+00 1.478750647918e+00 1.477289489599e+00 1.475610703599e+00 1.473711376569e+00 1.471591635726e+00 1.469250097529e+00 1.466687101361e+00 1.463902958358e+00 1.460898307831e+00 1.457675293193e+00 1.454234926472e+00 1.450581288854e+00 1.446715819983e+00 1.442644608581e+00 1.438369557058e+00 1.433898793532e+00 1.429234697952e+00 1.424387431124e+00 1.419359845441e+00 1.414164089926e+00 1.408803466110e+00 1.403292031135e+00 1.397633496718e+00 1.391843715669e+00 1.385926758611e+00 1.379900133331e+00 1.373768209513e+00 1.367549985693e+00 1.361250066173e+00 1.354888757398e+00 1.348470833186e+00 1.342017711356e+00 1.335534273106e+00 1.329042842028e+00 1.322548350718e+00 1.316073818016e+00 1.309624180654e+00 1.303222940782e+00 1.296875002606e+00 1.290604140998e+00 1.284415202717e+00 1.278332028091e+00 1.272359393636e+00 1.266521002394e+00 1.260821559614e+00 1.255284433270e+00 1.249914267050e+00 1.244733900768e+00 1.239747935301e+00 1.234978492978e+00 1.230430157311e+00 1.226124146071e+00 1.222065054580e+00 1.218273009099e+00 1.214752645986e+00 1.211522810431e+00 1.208588204639e+00 1.205966197113e+00 1.203661570902e+00 1.201690012012e+00 1.200056383370e+00 1.198774468468e+00 1.197849188797e+00 1.197292193993e+00 1.197108435488e+00 1.197307226013e+00 1.197893562907e+00 1.198874242069e+00 1.200254238793e+00 1.202037542086e+00 1.204228957775e+00 1.206829362792e+00 1.209843222219e+00 1.213267993597e+00 1.217107604567e+00 1.221355787382e+00 1.226015712423e+00 1.231077090775e+00 1.236542099598e+00 1.242396155558e+00 1.248640201109e+00 1.255255123515e+00 1.262240397089e+00 1.269572200851e+00 1.277248331389e+00 1.285240155946e+00 1.293543624818e+00 1.302125284547e+00 1.310979129015e+00 1.320066987915e+00 1.329380863508e+00 1.338878100817e+00 1.348548764329e+00 1.358346086439e+00 1.368258347226e+00 1.378235184404e+00 1.388263352052e+00 1.398289556459e+00 1.408299388650e+00 1.418237423890e+00 1.428088550439e+00 1.437796133896e+00 1.447344903189e+00 1.456678032447e+00 1.465780696887e+00 1.474596962744e+00 1.483113092361e+00 1.491275155402e+00 1.499071145571e+00 1.506450232806e+00 1.513402754690e+00 1.519882018824e+00 1.525881250748e+00 1.531358827973e+00 1.536311303102e+00 1.540702906292e+00 1.544533816799e+00 1.547774709850e+00 1.550429521290e+00 1.552475739840e+00 1.553920998313e+00 1.554749729895e+00 1.554973036179e+00 1.554582270836e+00 1.553591744515e+00 1.551999556097e+00 1.549822759200e+00 1.547065788743e+00 1.543747905768e+00 1.539879387420e+00 1.535481152766e+00 1.530568755682e+00 1.525164214139e+00 1.519287729525e+00 1.512961861624e+00 1.506210785354e+00 1.499057064933e+00 1.491528152902e+00 1.483646118516e+00 1.475440997311e+00 1.466933918744e+00 1.458156829513e+00 1.449129542340e+00 1.439885284374e+00 1.430442251738e+00 1.420834376771e+00 1.411078020962e+00 1.401207312080e+00 1.391236641229e+00 1.381199893217e+00 1.371109431947e+00 1.360998534275e+00 1.350877552556e+00 1.340778862864e+00 1.330710885290e+00 1.320704870580e+00 1.310767439110e+00 1.300928554174e+00 1.291193211097e+00 1.281589978788e+00 1.272122433016e+00 1.262817688534e+00 1.253678127011e+00 1.244729388024e+00 1.235972894490e+00 1.227432820117e+00 1.219109865296e+00 1.211026769307e+00 1.203183739268e+00 1.195602125794e+00 1.188281858358e+00 1.181242951623e+00 1.174485253852e+00 1.168027496536e+00 1.161869619329e+00 1.156029116901e+00 1.150506165147e+00 1.145317055676e+00 1.140462314246e+00 1.135957044618e+00 1.131802201511e+00 1.128011691699e+00 1.124586940191e+00 1.121540617697e+00 1.118874620077e+00 1.116600308333e+00 1.114720007337e+00 1.113243658698e+00 1.112173935649e+00 1.111519223067e+00 1.111282442610e+00 1.111470288703e+00 1.112085832797e+00 1.113133894619e+00 1.114617466268e+00 1.116539178146e+00 1.118901641431e+00 1.121704962859e+00 1.124951060241e+00 1.128637181444e+00 1.132764235496e+00 1.137326286498e+00 1.142322923328e+00 1.147744700563e+00 1.153589500241e+00 1.159844163939e+00 1.166506080588e+00 1.173556679781e+00 1.180990572159e+00 1.188786810182e+00 1.196937457092e+00 1.205417469140e+00 1.214216729927e+00 1.223306248882e+00 1.232673762253e+00 1.242286494690e+00 1.252130117250e+00 1.262168316023e+00 1.272384840450e+00 1.282740169640e+00 1.293216336170e+00 1.303771029370e+00 1.314384832682e+00 1.325013150261e+00 1.335635450747e+00 1.346205447305e+00 1.356701898588e+00 1.367077511205e+00 1.377310811037e+00 1.387354269658e+00 1.397186727481e+00 1.406761270593e+00 1.416057662801e+00 1.425030515786e+00 1.433661171233e+00 1.441906714412e+00 1.449750741322e+00 1.457153763316e+00 1.464102298310e+00 1.470561201695e+00 1.476520535533e+00 1.481950338737e+00 1.486844753733e+00 1.491179716736e+00 1.494953856849e+00 1.498149545112e+00 1.500770124517e+00 1.502804703272e+00 1.504261321831e+00 1.505135807904e+00 1.505440530561e+00 1.505177543644e+00 1.504362693529e+00 1.503003489239e+00 1.501118585676e+00 1.498720429326e+00 1.495829895516e+00 1.492463766954e+00 1.488644496169e+00 1.484392518264e+00 1.479731186884e+00 1.474683854694e+00 1.469274101003e+00 1.463527446949e+00 1.457467056412e+00 1.451119890393e+00 1.444508119582e+00 1.437659465816e+00 1.430594613962e+00 1.423341439077e+00 1.415918746470e+00 1.408354042357e+00 1.400663963655e+00 1.392875218127e+00 1.385002089409e+00 1.377070150295e+00 1.369091243641e+00 1.361089559497e+00 1.353074499082e+00 1.345068702688e+00 1.337079202261e+00 1.329126991812e+00 1.321216864873e+00 1.313368131779e+00 1.305583522114e+00 1.297880672722e+00 1.290260453146e+00 1.282738873532e+00 1.275315163952e+00 1.268003781313e+00 1.260802542456e+00 1.253724442589e+00 1.246766108196e+00 1.239939175277e+00 1.233239292464e+00 1.226676844299e+00 1.220246698582e+00 1.213958097023e+00 1.207805304697e+00 1.201796526784e+00 1.195925582858e+00 1.190199743294e+00 1.184612517752e+00 1.179170337462e+00 1.173866516276e+00 1.168706734987e+00 1.163684205107e+00 1.158803938288e+00 1.154059117880e+00 1.149454160115e+00 1.144982276724e+00 1.140647354739e+00 1.136442675010e+00 1.132371654292e+00 1.128427669389e+00 1.124613718742e+00 1.120923289936e+00 1.117359008490e+00 1.113914477450e+00 1.110591988690e+00 1.107385257002e+00 1.104296274308e+00 1.101318856677e+00 1.098454724744e+00 1.095697780156e+00 1.093049496492e+00 1.090503841425e+00 1.088062061896e+00 1.085718169440e+00 1.083473201596e+00 1.081321190092e+00 1.079262977781e+00 1.077292592410e+00 1.075410694992e+00 1.073611285464e+00 1.071894854631e+00 1.070255351898e+00 1.068693108882e+00 1.067202003475e+00 1.065782219095e+00 1.064427543415e+00 1.063138023172e+00 1.061907339888e+00 1.060735416227e+00 1.059615814882e+00 1.058548348659e+00 1.057526452346e+00 1.056549845121e+00 1.055611828725e+00 1.054712047436e+00 1.053843669173e+00 1.053006285062e+00 1.052192933246e+00 1.051403176958e+00 1.050629933896e+00 1.049872768718e+00 1.049124493875e+00 1.048384709462e+00 1.047646144457e+00 1.046908473820e+00 1.046164372234e+00 1.045413635243e+00 1.044648920853e+00 1.043870198240e+00 1.043070156035e+00 1.042248998651e+00 1.041399503760e+00 1.040522182617e+00 1.039609973148e+00 1.038663776696e+00 1.037676777309e+00 1.036650363134e+00 1.035578066897e+00 1.034461875765e+00 1.033295792629e+00 1.032082533594e+00 1.030816714465e+00 1.029501930205e+00 1.028133575920e+00 1.026716297653e+00 1.025246462051e+00 1.023729962796e+00 1.022164357893e+00 1.020557010903e+00 1.018906919359e+00 1.017223164906e+00 1.015506460550e+00 1.013767878903e+00 1.012010150124e+00 1.010246635387e+00 1.008482426876e+00 1.006733624777e+00 1.005008851251e+00 1.003332130521e+00 1.001744259913e+00 1.000000000000e+00 1.000000000000e+00 1.000000000000e+00 1.000000000000e+00 