# vtk DataFile Version 3.0
Vortex Output
ASCII
DATASET STRUCTURED_POINTS
FIELD FieldData 2
TIME 1 1 double
5.000000
CYCLE 1 1 int
2000
DIMENSIONS 514 130 1
ORIGIN 0 0 0
SPACING 1 1 1
POINT_DATA 66820
SCALARS u double 1
LOOKUP_TABLE default
1.000081879848e+00 1.000081879848e+00 1.000328913583e+00 1.000740474268e+00 1.001318384779e+00 1.002062113342e+00 1.002973731206e+00 1.004052914689e+00 1.005301954172e+00 1.006720694054e+00 1.008311609174e+00 1.010074660178e+00 1.012012458883e+00 1.014125017431e+00 1.016415024383e+00 1.018882465939e+00 1.021530034713e+00 1.024357601220e+00 1.027367777509e+00 1.030560217096e+00 1.033937355840e+00 1.037498518586e+00 1.041245859893e+00 1.045178255766e+00 1.049297467088e+00 1.053601795024e+00 1.058092490204e+00 1.062767150691e+00 1.067626400095e+00 1.072667007355e+00 1.077888857080e+00 1.083287770763e+00 1.088862792670e+00 1.094608692499e+00 1.100523590043e+00 1.106601119660e+00 1.112838416731e+00 1.119227924538e+00 1.125765765216e+00 1.132443169718e+00 1.139255255456e+00 1.146192059964e+00 1.153247746769e+00 1.160411223033e+00 1.167675794450e+00 1.175029346617e+00 1.182464468890e+00 1.189968178520e+00 1.197532532513e+00 1.205143872755e+00 1.212793944065e+00 1.220468637706e+00 1.228159633085e+00 1.235852616347e+00 1.243539462611e+00 1.251205905912e+00 1.258844278495e+00 1.266440608360e+00 1.273987931939e+00 1.281472796008e+00 1.288889159988e+00 1.296224280116e+00 1.303473217447e+00 1.310624084028e+00 1.317673172234e+00 1.324609545251e+00 1.331430802427e+00 1.338126999706e+00 1.344697063906e+00 1.351132032916e+00 1.357432128946e+00 1.363589313369e+00 1.369605024820e+00 1.375472049566e+00 1.381192924703e+00 1.386761132027e+00 1.392180159275e+00 1.397444033810e+00 1.402557025876e+00 1.407513548004e+00 1.412318473622e+00 1.416966439104e+00 1.421462738775e+00 1.425802078974e+00 1.429989996705e+00 1.434021128895e+00 1.437901086788e+00 1.441624318699e+00 1.445196355948e+00 1.448611363586e+00 1.451874656519e+00 1.454980049658e+00 1.457932525164e+00 1.460725510926e+00 1.463363561973e+00 1.465839713623e+00 1.468158022474e+00 1.470311157606e+00 1.472302629605e+00 1.474124799269e+00 1.475780607384e+00 1.477262194959e+00 1.478571932429e+00 1.479701858010e+00 1.480653793111e+00 1.481419815362e+00 1.482001237686e+00 1.482390339164e+00 1.482587978525e+00 1.482586810638e+00 1.482387331344e+00 1.481982824136e+00 1.481373554072e+00 1.480553636303e+00 1.479523189718e+00 1.478277363379e+00 1.476816233649e+00 1.475136187706e+00 1.473237364359e+00 1.471117581815e+00 1.468777142470e+00 1.466215471022e+00 1.463433125830e+00 1.460431289337e+00 1.457210855141e+00 1.453774885168e+00 1.450124671182e+00 1.446265242585e+00 1.442198333501e+00 1.437930992174e+00 1.433465419349e+00 1.428810695422e+00 1.423969492029e+00 1.418952897031e+00 1.413764038327e+00 1.408415949990e+00 1.402912184750e+00 1.397267627749e+00 1.391486211232e+00 1.385584546033e+00 1.379566888224e+00 1.373451423079e+00 1.367242668287e+00 1.360960211207e+00 1.354608766333e+00 1.348209134543e+00 1.341766163481e+00 1.335301667504e+00 1.328820568293e+00 1.322345486542e+00 1.315881366262e+00 1.309451424045e+00 1.303060584144e+00 1.296732448443e+00 1.290471890474e+00 1.284302689010e+00 1.278229647781e+00 1.272276517842e+00 1.266448025938e+00 1.260767695408e+00 1.255240180049e+00 1.249888580183e+00 1.244717490540e+00 1.239749397235e+00 1.234988857650e+00 1.230457555387e+00 1.226160037380e+00 1.222116997465e+00 1.218333000878e+00 1.214827563032e+00 1.211605293965e+00 1.208684337453e+00 1.206069367554e+00 1.203776954616e+00 1.201811842459e+00 1.200188812693e+00 1.198912664083e+00 1.197996156367e+00 1.197444105391e+00 1.197267011327e+00 1.197469705369e+00 1.198060309071e+00 1.199043708076e+00 1.200425377307e+00 1.202210096891e+00 1.204400382124e+00 1.207000748562e+00 1.210010446880e+00 1.213433547483e+00 1.217265731075e+00 1.221510417826e+00 1.226159418463e+00 1.231215278242e+00 1.236665654112e+00 1.242511981101e+00 1.248737508995e+00 1.255342328740e+00 1.262305076722e+00 1.269624282020e+00 1.277273826968e+00 1.285250493399e+00 1.293523353653e+00 1.302087306468e+00 1.310906661565e+00 1.319974365025e+00 1.329250131378e+00 1.338724965897e+00 1.348354288834e+00 1.358127270041e+00 1.367995478616e+00 1.377946455776e+00 1.387928507489e+00 1.397927856940e+00 1.407890275542e+00 1.417801078985e+00 1.427604361152e+00 1.437285030023e+00 1.446786467408e+00 1.456093745114e+00 1.465150579141e+00 1.473942824553e+00 1.482415624266e+00 1.490556254682e+00 1.498312385095e+00 1.505673336676e+00 1.512590367898e+00 1.519055417749e+00 1.525024314868e+00 1.530492102284e+00 1.535420033133e+00 1.539806618501e+00 1.543619221177e+00 1.546860029727e+00 1.549502994692e+00 1.551554009989e+00 1.552993855862e+00 1.553831964639e+00 1.554055957363e+00 1.553678570933e+00 1.552694338728e+00 1.551119063924e+00 1.548953821609e+00 1.546216876299e+00 1.542915375475e+00 1.539069501590e+00 1.534691951913e+00 1.529804275450e+00 1.524424128433e+00 1.518573870156e+00 1.512275469988e+00 1.505551551945e+00 1.498427718765e+00 1.490926342268e+00 1.483075967729e+00 1.474898243896e+00 1.466423978974e+00 1.457673688735e+00 1.448679795808e+00 1.439461345291e+00 1.430051773131e+00 1.420468395225e+00 1.410745119362e+00 1.400897355503e+00 1.390959009455e+00 1.380943488911e+00 1.370884295572e+00 1.360792814072e+00 1.350701812106e+00 1.340620698402e+00 1.330581246533e+00 1.320590994882e+00 1.310680527830e+00 1.300855666657e+00 1.291145670109e+00 1.281554832109e+00 1.272111000415e+00 1.262817156802e+00 1.253699695647e+00 1.244760516776e+00 1.236024553419e+00 1.227492859106e+00 1.219188924516e+00 1.211113189555e+00 1.203287739339e+00 1.195712622574e+00 1.188408566626e+00 1.181375435046e+00 1.174632648953e+00 1.168180071282e+00 1.162035865395e+00 1.156200052337e+00 1.150689576829e+00 1.145504747191e+00 1.140661313125e+00 1.136159966390e+00 1.132015263824e+00 1.128228340415e+00 1.124812534962e+00 1.121769445769e+00 1.119111135650e+00 1.116839643825e+00 1.114965662545e+00 1.113491606730e+00 1.112426668146e+00 1.111773538190e+00 1.111539763017e+00 1.111728230836e+00 1.112344755271e+00 1.113392306098e+00 1.114874678564e+00 1.116794610234e+00 1.119153540678e+00 1.121953671191e+00 1.125193755518e+00 1.128875149897e+00 1.132993596736e+00 1.137549302512e+00 1.142534696833e+00 1.147948567395e+00 1.153779814903e+00 1.160023994081e+00 1.166669803710e+00 1.173709055072e+00 1.181123986951e+00 1.188907651169e+00 1.197037118612e+00 1.205503347173e+00 1.214279430405e+00 1.223354170748e+00 1.232696785520e+00 1.242293966570e+00 1.252111253231e+00 1.262133337622e+00 1.272322367099e+00 1.282661208003e+00 1.293108988982e+00 1.303646988326e+00 1.314231777440e+00 1.324843350685e+00 1.335436274116e+00 1.345989632453e+00 1.356456629119e+00 1.366815884921e+00 1.377019972730e+00 1.387047567579e+00 1.396851426978e+00 1.406410862368e+00 1.415679699558e+00 1.424638521759e+00 1.433243155488e+00 1.441476122992e+00 1.449296202950e+00 1.456688528377e+00 1.463615764853e+00 1.470066298710e+00 1.476007558941e+00 1.481431759862e+00 1.486311866513e+00 1.490644385710e+00 1.494408438373e+00 1.497605131773e+00 1.500220155450e+00 1.502259313116e+00 1.503715000435e+00 1.504597523413e+00 1.504905745189e+00 1.504653870850e+00 1.503846555949e+00 1.502501114169e+00 1.500627390502e+00 1.498245204205e+00 1.495369029817e+00 1.492020575571e+00 1.488218305200e+00 1.483985158250e+00 1.479342883079e+00 1.474314976540e+00 1.468925735104e+00 1.463198557406e+00 1.457159552727e+00 1.450831413988e+00 1.444241362821e+00 1.437410852632e+00 1.430367576454e+00 1.423131305532e+00 1.415729640607e+00 1.408180329590e+00 1.400510405464e+00 1.392735355628e+00 1.384881261920e+00 1.376961214404e+00 1.369000050746e+00 1.361008418712e+00 1.353009703139e+00 1.345012144445e+00 1.337037541381e+00 1.329091827921e+00 1.321195148204e+00 1.313351281858e+00 1.305578703204e+00 1.297879226271e+00 1.290269682440e+00 1.282750132167e+00 1.275335822607e+00 1.268025284034e+00 1.260832260439e+00 1.253753976440e+00 1.246802768874e+00 1.239974774902e+00 1.233281028378e+00 1.226716783930e+00 1.220291879495e+00 1.214000875270e+00 1.207852520164e+00 1.201840848103e+00 1.195973622343e+00 1.190244497330e+00 1.184660348824e+00 1.179214577095e+00 1.173913262213e+00 1.168749654501e+00 1.163729123049e+00 1.158844852454e+00 1.154101578119e+00 1.149492484626e+00 1.145021743542e+00 1.140682588404e+00 1.136478689475e+00 1.132403363298e+00 1.128459834115e+00 1.124641522218e+00 1.120951254508e+00 1.117382565430e+00 1.113937927237e+00 1.110610988767e+00 1.107403903811e+00 1.104310428800e+00 1.101332430616e+00 1.098463760120e+00 1.095706023720e+00 1.093053149240e+00 1.090506505001e+00 1.088060074801e+00 1.085715007956e+00 1.083465321501e+00 1.081311961750e+00 1.079248954901e+00 1.077277058155e+00 1.075390282915e+00 1.073589209644e+00 1.071867811645e+00 1.070226504038e+00 1.068659200129e+00 1.067166160780e+00 1.065741219431e+00 1.064384494019e+00 1.063089720783e+00 1.061856886870e+00 1.060679616967e+00 1.059557780856e+00 1.058484880726e+00 1.057460684271e+00 1.056478564092e+00 1.055538203341e+00 1.054632842037e+00 1.053762099088e+00 1.052919083585e+00 1.052103373763e+00 1.051307954451e+00 1.050532390570e+00 1.049769555038e+00 1.049019031349e+00 1.048273599064e+00 1.047532896992e+00 1.046789636798e+00 1.046043555408e+00 1.045287330167e+00 1.044520845646e+00 1.043736787336e+00 1.042935244960e+00 1.042108965127e+00 1.041258309557e+00 1.040376150932e+00 1.039463200662e+00 1.038512536195e+00 1.037525308936e+00 1.036494895529e+00 1.035422992229e+00 1.034303387138e+00 1.033138442800e+00 1.031922491105e+00 1.030658701211e+00 1.029342103641e+00 1.027976835681e+00 1.026558806105e+00 1.025093305083e+00 1.023577325649e+00 1.022017520324e+00 1.020412200373e+00 1.018769615979e+00 1.017089658484e+00 1.015382436008e+00 1.013649707931e+00 1.011903723368e+00 1.010148423441e+00 1.008398521321e+00 1.006660604910e+00 1.004952983575e+00 1.003290031777e+00 1.001721932039e+00 1.000000000000e+00 1.000000000000e+00 1.000000000000e+00 1.000000000000e+00 
1.000000000000e+00 1.000081879848e+00 1.000328913583e+00 1.000740474268e+00 1.001318384779e+00 1.002062113342e+00 1.002973731206e+00 1.004052914689e+00 1.005301954172e+00 1.006720694054e+00 1.008311609174e+00 1.010074660178e+00 1.012012458883e+00 1.014125017431e+00 1.016415024383e+00 1.018882465939e+00 1.021530034713e+00 1.024357601220e+00 1.027367777509e+00 1.030560217096e+00 1.033937355840e+00 1.037498518586e+00 1.041245859893e+00 1.045178255766e+00 1.049297467088e+00 1.053601795024e+00 1.058092490204e+00 1.062767150691e+00 1.067626400095e+00 1.072667007355e+00 1.077888857080e+00 1.083287770763e+00 1.088862792670e+00 1.094608692499e+00 1.100523590043e+00 1.106601119660e+00 1.112838416731e+00 1.119227924538e+00 1.125765765216e+00 1.132443169718e+00 1.139255255456e+00 1.146192059964e+00 1.153247746769e+00 1.160411223033e+00 1.167675794450e+00 1.175029346617e+00 1.182464468890e+00 1.189968178520e+00 1.197532532513e+00 1.205143872755e+00 1.212793944065e+00 1.220468637706e+00 1.228159633085e+00 1.235852616347e+00 1.243539462611e+00 1.251205905912e+00 1.258844278495e+00 1.266440608360e+00 1.273987931939e+00 1.281472796008e+00 1.288889159988e+00 1.296224280116e+00 1.303473217447e+00 1.310624084028e+00 1.317673172234e+00 1.324609545251e+00 1.331430802427e+00 1.338126999706e+00 1.344697063906e+00 1.351132032916e+00 1.357432128946e+00 1.363589313369e+00 1.369605024820e+00 1.375472049566e+00 1.381192924703e+00 1.386761132027e+00 1.392180159275e+00 1.397444033810e+00 1.402557025876e+00 1.407513548004e+00 1.412318473622e+00 1.416966439104e+00 1.421462738775e+00 1.425802078974e+00 1.429989996705e+00 1.434021128895e+00 1.437901086788e+00 1.441624318699e+00 1.445196355948e+00 1.448611363586e+00 1.451874656519e+00 1.454980049658e+00 1.457932525164e+00 1.460725510926e+00 1.463363561973e+00 1.465839713623e+00 1.468158022474e+00 1.470311157606e+00 1.472302629605e+00 1.474124799269e+00 1.475780607384e+00 1.477262194959e+00 1.478571932429e+00 1.479701858010e+00 1.480653793111e+00 1.481419815362e+00 1.482001237686e+00 1.482390339164e+00 1.482587978525e+00 1.482586810638e+00 1.482387331344e+00 1.481982824136e+00 1.481373554072e+00 1.480553636303e+00 1.479523189718e+00 1.478277363379e+00 1.476816233649e+00 1.475136187706e+00 1.473237364359e+00 1.471117581815e+00 1.468777142470e+00 1.466215471022e+00 1.463433125830e+00 1.460431289337e+00 1.457210855141e+00 1.453774885168e+00 1.450124671182e+00 1.446265242585e+00 1.442198333501e+00 1.437930992174e+00 1.433465419349e+00 1.428810695422e+00 1.423969492029e+00 1.418952897031e+00 1.413764038327e+00 1.408415949990e+00 1.402912184750e+00 1.397267627749e+00 1.391486211232e+00 1.385584546033e+00 1.379566888224e+00 1.373451423079e+00 1.367242668287e+00 1.360960211207e+00 1.354608766333e+00 1.348209134543e+00 1.341766163481e+00 1.335301667504e+00 1.328820568293e+00 1.322345486542e+00 1.315881366262e+00 1.309451424045e+00 1.303060584144e+00 1.296732448443e+00 1.290471890474e+00 1.284302689010e+00 1.278229647781e+00 1.272276517842e+00 1.266448025938e+00 1.260767695408e+00 1.255240180049e+00 1.249888580183e+00 1.244717490540e+00 1.239749397235e+00 1.234988857650e+00 1.230457555387e+00 1.226160037380e+00 1.222116997465e+00 1.218333000878e+00 1.214827563032e+00 1.211605293965e+00 1.208684337453e+00 1.206069367554e+00 1.203776954616e+00 1.201811842459e+00 1.200188812693e+00 1.198912664083e+00 1.197996156367e+00 1.197444105391e+00 1.197267011327e+00 1.197469705369e+00 1.198060309071e+00 1.199043708076e+00 1.200425377307e+00 1.202210096891e+00 1.204400382124e+00 1.207000748562e+00 1.210010446880e+00 1.213433547483e+00 1.217265731075e+00 1.221510417826e+00 1.226159418463e+00 1.231215278242e+00 1.236665654112e+00 1.242511981101e+00 1.248737508995e+00 1.255342328740e+00 1.262305076722e+00 1.269624282020e+00 1.277273826968e+00 1.285250493399e+00 1.293523353653e+00 1.302087306468e+00 1.310906661565e+00 1.319974365025e+00 1.329250131378e+00 1.338724965897e+00 1.348354288834e+00 1.358127270041e+00 1.367995478616e+00 1.377946455776e+00 1.387928507489e+00 1.397927856940e+00 1.407890275542e+00 1.417801078985e+00 1.427604361152e+00 1.437285030023e+00 1.446786467408e+00 1.456093745114e+00 1.465150579141e+00 1.473942824553e+00 1.482415624266e+00 1.490556254682e+00 1.498312385095e+00 1.505673336676e+00 1.512590367898e+00 1.519055417749e+00 1.525024314868e+00 1.530492102284e+00 1.535420033133e+00 1.539806618501e+00 1.543619221177e+00 1.546860029727e+00 1.549502994692e+00 1.551554009989e+00 1.552993855862e+00 1.553831964639e+00 1.554055957363e+00 1.553678570933e+00 1.552694338728e+00 1.551119063924e+00 1.548953821609e+00 1.546216876299e+00 1.542915375475e+00 1.539069501590e+00 1.534691951913e+00 1.529804275450e+00 1.524424128433e+00 1.518573870156e+00 1.512275469988e+00 1.505551551945e+00 1.498427718765e+00 1.490926342268e+00 1.483075967729e+00 1.474898243896e+00 1.466423978974e+00 1.457673688735e+00 1.448679795808e+00 1.439461345291e+00 1.430051773131e+00 1.420468395225e+00 1.410745119362e+00 1.400897355503e+00 1.390959009455e+00 1.380943488911e+00 1.370884295572e+00 1.360792814072e+00 1.350701812106e+00 1.340620698402e+00 1.330581246533e+00 1.320590994882e+00 1.310680527830e+00 1.300855666657e+00 1.291145670109e+00 1.281554832109e+00 1.272111000415e+00 1.262817156802e+00 1.253699695647e+00 1.244760516776e+00 1.236024553419e+00 1.227492859106e+00 1.219188924516e+00 1.211113189555e+00 1.203287739339e+00 1.195712622574e+00 1.188408566626e+00 1.181375435046e+00 1.174632648953e+00 1.168180071282e+00 1.162035865395e+00 1.156200052337e+00 1.150689576829e+00 1.145504747191e+00 1.140661313125e+00 1.136159966390e+00 1.132015263824e+00 1.128228340415e+00 1.124812534962e+00 1.121769445769e+00 1.119111135650e+00 1.116839643825e+00 1.114965662545e+00 1.113491606730e+00 1.112426668146e+00 1.111773538190e+00 1.111539763017e+00 1.111728230836e+00 1.112344755271e+00 1.113392306098e+00 1.114874678564e+00 1.116794610234e+00 1.119153540678e+00 1.121953671191e+00 1.125193755518e+00 1.128875149897e+00 1.132993596736e+00 1.137549302512e+00 1.142534696833e+00 1.147948567395e+00 1.153779814903e+00 1.160023994081e+00 1.166669803710e+00 1.173709055072e+00 1.181123986951e+00 1.188907651169e+00 1.197037118612e+00 1.205503347173e+00 1.214279430405e+00 1.223354170748e+00 1.232696785520e+00 1.242293966570e+00 1.252111253231e+00 1.262133337622e+00 1.272322367099e+00 1.282661208003e+00 1.293108988982e+00 1.303646988326e+00 1.314231777440e+00 1.324843350685e+00 1.335436274116e+00 1.345989632453e+00 1.356456629119e+00 1.366815884921e+00 1.377019972730e+00 1.387047567579e+00 1.396851426978e+00 1.406410862368e+00 1.415679699558e+00 1.424638521759e+00 1.433243155488e+00 1.441476122992e+00 1.449296202950e+00 1.456688528377e+00 1.463615764853e+00 1.470066298710e+00 1.476007558941e+00 1.481431759862e+00 1.486311866513e+00 1.490644385710e+00 1.494408438373e+00 1.497605131773e+00 1.500220155450e+00 1.502259313116e+00 1.503715000435e+00 1.504597523413e+00 1.504905745189e+00 1.504653870850e+00 1.503846555949e+00 1.502501114169e+00 1.500627390502e+00 1.498245204205e+00 1.495369029817e+00 1.492020575571e+00 1.488218305200e+00 1.483985158250e+00 1.479342883079e+00 1.474314976540e+00 1.468925735104e+00 1.463198557406e+00 1.457159552727e+00 1.450831413988e+00 1.444241362821e+00 1.437410852632e+00 1.430367576454e+00 1.423131305532e+00 1.415729640607e+00 1.408180329590e+00 1.400510405464e+00 1.392735355628e+00 1.384881261920e+00 1.376961214404e+00 1.369000050746e+00 1.361008418712e+00 1.353009703139e+00 1.345012144445e+00 1.337037541381e+00 1.329091827921e+00 1.321195148204e+00 1.313351281858e+00 1.305578703204e+00 1.297879226271e+00 1.290269682440e+00 1.282750132167e+00 1.275335822607e+00 1.268025284034e+00 1.260832260439e+00 1.253753976440e+00 1.246802768874e+00 1.239974774902e+00 1.233281028378e+00 1.226716783930e+00 1.220291879495e+00 1.214000875270e+00 1.207852520164e+00 1.201840848103e+00 1.195973622343e+00 1.190244497330e+00 1.184660348824e+00 1.179214577095e+00 1.173913262213e+00 1.168749654501e+00 1.163729123049e+00 1.158844852454e+00 1.154101578119e+00 1.149492484626e+00 1.145021743542e+00 1.140682588404e+00 1.136478689475e+00 1.132403363298e+00 1.128459834115e+00 1.124641522218e+00 1.120951254508e+00 1.117382565430e+00 1.113937927237e+00 1.110610988767e+00 1.107403903811e+00 1.104310428800e+00 1.101332430616e+00 1.098463760120e+00 1.095706023720e+00 1.093053149240e+00 1.090506505001e+00 1.088060074801e+00 1.085715007956e+00 1.083465321501e+00 1.081311961750e+00 1.079248954901e+00 1.077277058155e+00 1.075390282915e+00 1.073589209644e+00 1.071867811645e+00 1.070226504038e+00 1.068659200129e+00 1.067166160780e+00 1.065741219431e+00 1.064384494019e+00 1.063089720783e+00 1.061856886870e+00 1.060679616967e+00 1.059557780856e+00 1.058484880726e+00 1.057460684271e+00 1.056478564092e+00 1.055538203341e+00 1.054632842037e+00 1.053762099088e+00 1.052919083585e+00 1.052103373763e+00 1.051307954451e+00 1.050532390570e+00 1.049769555038e+00 1.049019031349e+00 1.048273599064e+00 1.047532896992e+00 1.046789636798e+00 1.046043555408e+00 1.045287330167e+00 1.044520845646e+00 1.043736787336e+00 1.042935244960e+00 1.042108965127e+00 1.041258309557e+00 1.040376150932e+00 1.039463200662e+00 1.038512536195e+00 1.037525308936e+00 1.036494895529e+00 1.035422992229e+00 1.034303387138e+00 1.033138442800e+00 1.031922491105e+00 1.030658701211e+00 1.029342103641e+00 1.027976835681e+00 1.026558806105e+00 1.025093305083e+00 1.023577325649e+00 1.022017520324e+00 1.020412200373e+00 1.018769615979e+00 1.017089658484e+00 1.015382436008e+00 1.013649707931e+00 1.011903723368e+00 1.010148423441e+00 1.008398521321e+00 1.006660604910e+00 1.004952983575e+00 1.003290031777e+00 1.001721932039e+00 1.000000000000e+00 1.000000000000e+00 1.000000000000e+00 1.000000000000e+00 
1.000000000000e+00 1.000082297195e+00 1.000328600482e+00 1.000740583796e+00 1.001317616009e+00 1.002061651362e+00 1.002972269890e+00 1.004051661453e+00 1.005299600095e+00 1.006718484154e+00 1.008308235327e+00 1.010071418474e+00 1.012008043987e+00 1.014120788951e+00 1.016409681021e+00 1.018877442767e+00 1.021524035224e+00 1.024352147466e+00 1.027361577968e+00 1.030554891703e+00 1.033931617478e+00 1.037494095077e+00 1.041241466841e+00 1.045175737597e+00 1.049295538942e+00 1.053602424913e+00 1.058094387680e+00 1.062772412100e+00 1.067633721864e+00 1.072678616202e+00 1.077903425911e+00 1.083307655549e+00 1.088886629175e+00 1.094638961345e+00 1.100558872779e+00 1.106644013335e+00 1.112887428131e+00 1.119285755411e+00 1.125830823826e+00 1.132518247698e+00 1.139338636178e+00 1.146286607844e+00 1.153351592237e+00 1.160527285039e+00 1.167802022051e+00 1.175168695363e+00 1.182614679191e+00 1.190132226572e+00 1.197707925666e+00 1.205333595609e+00 1.212995251024e+00 1.220684514842e+00 1.228387067951e+00 1.236094596121e+00 1.243792701108e+00 1.251473398345e+00 1.259122465559e+00 1.266732507605e+00 1.274289718880e+00 1.281787531564e+00 1.289212768945e+00 1.296559893225e+00 1.303816528379e+00 1.310978323425e+00 1.318033825705e+00 1.324979974837e+00 1.331806310324e+00 1.338511110072e+00 1.345084920044e+00 1.351527348916e+00 1.357829912190e+00 1.363993491016e+00 1.370010488788e+00 1.375882957187e+00 1.381604069932e+00 1.387176912533e+00 1.392595285660e+00 1.397863146849e+00 1.402974765005e+00 1.407934792360e+00 1.412737802042e+00 1.417388956957e+00 1.421882974211e+00 1.426225344376e+00 1.430410779814e+00 1.434444923145e+00 1.438322351141e+00 1.442048695312e+00 1.445618288840e+00 1.449036605313e+00 1.452297652906e+00 1.455406619703e+00 1.458357136689e+00 1.461154000184e+00 1.463790442772e+00 1.466270785497e+00 1.468587873221e+00 1.470745491847e+00 1.472736141212e+00 1.474563036235e+00 1.476218405802e+00 1.477704881831e+00 1.479014526192e+00 1.480149398781e+00 1.481101525744e+00 1.481872427230e+00 1.482454248617e+00 1.482848021224e+00 1.483046183879e+00 1.483049348569e+00 1.482850450138e+00 1.482449793462e+00 1.481841042005e+00 1.481024300539e+00 1.479994168609e+00 1.478750652202e+00 1.477289494129e+00 1.475610708414e+00 1.473711381634e+00 1.471591641078e+00 1.469250103129e+00 1.466687107248e+00 1.463902964489e+00 1.460898314244e+00 1.457675299841e+00 1.454234933393e+00 1.450581295999e+00 1.446715827388e+00 1.442644616192e+00 1.438369564912e+00 1.433898801572e+00 1.429234706213e+00 1.424387439546e+00 1.419359854059e+00 1.414164098677e+00 1.408803475027e+00 1.403292040151e+00 1.397633505869e+00 1.391843724883e+00 1.385926767923e+00 1.379900142667e+00 1.373768218909e+00 1.367549995070e+00 1.361250075569e+00 1.354888766731e+00 1.348470842495e+00 1.342017720556e+00 1.335534282237e+00 1.329042851003e+00 1.322548359577e+00 1.316073826670e+00 1.309624189145e+00 1.303222949018e+00 1.296875010633e+00 1.290604148720e+00 1.284415210182e+00 1.278332035201e+00 1.272359400442e+00 1.266521008796e+00 1.260821565664e+00 1.255284438867e+00 1.249914272250e+00 1.244733905468e+00 1.239747939558e+00 1.234978496688e+00 1.230430160536e+00 1.226124148704e+00 1.222065056686e+00 1.218273010570e+00 1.214752646892e+00 1.211522810661e+00 1.208588204267e+00 1.205966196025e+00 1.203661569180e+00 1.201690009539e+00 1.200056380232e+00 1.198774464549e+00 1.197849184186e+00 1.197292188574e+00 1.197108429357e+00 1.197307219050e+00 1.197893555217e+00 1.198874233530e+00 1.200254229516e+00 1.202037531948e+00 1.204228946897e+00 1.206829351050e+00 1.209843209741e+00 1.213267980259e+00 1.217107590507e+00 1.221355772476e+00 1.226015696819e+00 1.231077074349e+00 1.236542082510e+00 1.242396137683e+00 1.248640182620e+00 1.255255104287e+00 1.262240377308e+00 1.269572180391e+00 1.277248310452e+00 1.285240134405e+00 1.293543602887e+00 1.302125262100e+00 1.310979106283e+00 1.320066964769e+00 1.329380840192e+00 1.338878077200e+00 1.348548740672e+00 1.358346062607e+00 1.368258323493e+00 1.378235160632e+00 1.388263328528e+00 1.398289533037e+00 1.408299365633e+00 1.418237401121e+00 1.428088528234e+00 1.437796112086e+00 1.447344882101e+00 1.456678011901e+00 1.465780677217e+00 1.474596943755e+00 1.483113074394e+00 1.491275138245e+00 1.499071129572e+00 1.506450217734e+00 1.513402740895e+00 1.519882006053e+00 1.525881239357e+00 1.531358817686e+00 1.536311294274e+00 1.540702898624e+00 1.544533810649e+00 1.547774704894e+00 1.550429517884e+00 1.552475737638e+00 1.553920997671e+00 1.554749730444e+00 1.554973038274e+00 1.554582274088e+00 1.553591749275e+00 1.551999561958e+00 1.549822766514e+00 1.547065797085e+00 1.543747915487e+00 1.539879398079e+00 1.535481164714e+00 1.530568768468e+00 1.525164228111e+00 1.519287744227e+00 1.512961877399e+00 1.506210801741e+00 1.499057082275e+00 1.491528170737e+00 1.483646137183e+00 1.475441016350e+00 1.466933938489e+00 1.458156849511e+00 1.449129562920e+00 1.439885305091e+00 1.430442272913e+00 1.420834397975e+00 1.411078042506e+00 1.401207333551e+00 1.391236662925e+00 1.381199914746e+00 1.371109453593e+00 1.360998555669e+00 1.350877573965e+00 1.340778883947e+00 1.330710906291e+00 1.320704891190e+00 1.310767459549e+00 1.300928574166e+00 1.291193230833e+00 1.281589998030e+00 1.272122451925e+00 1.262817706911e+00 1.253678144982e+00 1.244729405431e+00 1.235972911422e+00 1.227432836463e+00 1.219109881101e+00 1.211026784508e+00 1.203183753867e+00 1.195602139776e+00 1.188281871676e+00 1.181242964317e+00 1.174485265825e+00 1.168027507880e+00 1.161869629894e+00 1.156029126833e+00 1.150506174244e+00 1.145317064141e+00 1.140462321817e+00 1.135957051558e+00 1.131802207502e+00 1.128011697060e+00 1.124586944546e+00 1.121540621423e+00 1.118874622741e+00 1.116600310370e+00 1.114720008255e+00 1.113243658992e+00 1.112173934767e+00 1.111519221563e+00 1.111282439876e+00 1.111470285349e+00 1.112085828161e+00 1.113133889366e+00 1.114617459683e+00 1.116539170947e+00 1.118901632856e+00 1.121704953677e+00 1.124951049643e+00 1.128637170251e+00 1.132764222855e+00 1.137326273277e+00 1.142322908639e+00 1.147744685323e+00 1.153589483566e+00 1.159844146863e+00 1.166506061863e+00 1.173556660568e+00 1.180990551473e+00 1.188786789040e+00 1.196937434506e+00 1.205417446168e+00 1.214216705553e+00 1.223306224187e+00 1.232673736212e+00 1.242286468408e+00 1.252130089699e+00 1.262168288324e+00 1.272384811561e+00 1.282740140697e+00 1.293216306138e+00 1.303770999415e+00 1.314384801714e+00 1.325013119426e+00 1.335635419046e+00 1.346205415932e+00 1.356701866430e+00 1.367077479306e+00 1.377310778692e+00 1.387354237990e+00 1.397186695391e+00 1.406761238933e+00 1.416057630700e+00 1.425030484319e+00 1.433661139683e+00 1.441906683794e+00 1.449750710859e+00 1.457153733914e+00 1.464102269161e+00 1.470561173671e+00 1.476520507822e+00 1.481950312195e+00 1.486844727526e+00 1.491179691703e+00 1.494953832163e+00 1.498149521668e+00 1.500770101619e+00 1.502804681956e+00 1.504261301496e+00 1.505135789441e+00 1.505440513016e+00 1.505177527406e+00 1.504362677667e+00 1.503003474724e+00 1.501118572271e+00 1.498720417669e+00 1.495829884402e+00 1.492463756927e+00 1.488644487214e+00 1.484392510356e+00 1.479731179589e+00 1.474683848908e+00 1.469274096076e+00 1.463527443052e+00 1.457467052938e+00 1.451119887744e+00 1.444508117516e+00 1.437659464784e+00 1.430594613654e+00 1.423341439786e+00 1.415918747860e+00 1.408354044613e+00 1.400663966485e+00 1.392875221648e+00 1.385002093390e+00 1.377070154808e+00 1.369091248520e+00 1.361089564788e+00 1.353074504683e+00 1.345068708626e+00 1.337079208472e+00 1.329126998276e+00 1.321216871512e+00 1.313368138538e+00 1.305583528935e+00 1.297880679644e+00 1.290260460239e+00 1.282738880832e+00 1.275315171516e+00 1.268003789157e+00 1.260802550645e+00 1.253724451115e+00 1.246766117051e+00 1.239939184517e+00 1.233239301802e+00 1.226676853565e+00 1.220246707727e+00 1.213958106165e+00 1.207805313899e+00 1.201796536104e+00 1.195925592236e+00 1.190199752709e+00 1.184612527109e+00 1.179170346727e+00 1.173866525351e+00 1.168706743847e+00 1.163684213656e+00 1.158803946533e+00 1.154059125784e+00 1.149454167806e+00 1.144982284288e+00 1.140647362392e+00 1.136442682752e+00 1.132371662145e+00 1.128427677119e+00 1.124613726359e+00 1.120923297394e+00 1.117359015999e+00 1.113914484832e+00 1.110591995982e+00 1.107385264028e+00 1.104296281220e+00 1.101318863273e+00 1.098454731247e+00 1.095697786342e+00 1.093049502508e+00 1.090503847096e+00 1.088062067574e+00 1.085718174923e+00 1.083473207099e+00 1.081321195291e+00 1.079262982912e+00 1.077292597197e+00 1.075410699753e+00 1.073611289943e+00 1.071894859172e+00 1.070255356225e+00 1.068693113330e+00 1.067202007718e+00 1.065782223436e+00 1.064427547472e+00 1.063138027219e+00 1.061907343522e+00 1.060735419743e+00 1.059615817920e+00 1.058548351595e+00 1.057526454900e+00 1.056549847697e+00 1.055611830975e+00 1.054712049684e+00 1.053843671082e+00 1.053006287018e+00 1.052192934928e+00 1.051403178699e+00 1.050629935358e+00 1.049872770242e+00 1.049124495125e+00 1.048384710759e+00 1.047646145483e+00 1.046908474943e+00 1.046164373189e+00 1.045413636341e+00 1.044648921772e+00 1.043870199245e+00 1.043070156834e+00 1.042248999526e+00 1.041399504465e+00 1.040522183435e+00 1.039609973858e+00 1.038663777558e+00 1.037676778099e+00 1.036650364059e+00 1.035578067700e+00 1.034461876576e+00 1.033295793180e+00 1.032082534051e+00 1.030816714713e+00 1.029501930484e+00 1.028133576070e+00 1.026716297779e+00 1.025246462027e+00 1.023729962852e+00 1.022164357958e+00 1.020557011075e+00 1.018906919497e+00 1.017223165107e+00 1.015506460680e+00 1.013767879045e+00 1.012010150184e+00 1.010246635461e+00 1.008482426896e+00 1.006733624836e+00 1.005008851280e+00 1.003332130592e+00 1.001744259957e+00 1.000000000000e+00 1.000000000000e+00 1.000000000000e+00 1.000000000000e+00 