# vtk DataFile Version 3.0
Vortex Output
ASCII
DATASET STRUCTURED_POINTS
FIELD FieldData 2
TIME 1 1 double
5.000000
CYCLE 1 1 int
2000
DIMENSIONS 514 130 1
ORIGIN 0 0 0
SPACING 1 1 1
POINT_DATA 66820
SCALARS u double 1
LOOKUP_TABLE default
1.000087211150e+00 1.000087211150e+00 1.000344676473e+00 1.000776546112e+00 1.001378150341e+00 1.002154384825e+00 1.003100748779e+00 1.004222342302e+00 1.005514834521e+00 1.006983508482e+00 1.008624161848e+00 1.010442221462e+00 1.012433556811e+00 1.014603687648e+00 1.016948487709e+00 1.019473504181e+00 1.022174534676e+00 1.025057076860e+00 1.028116759124e+00 1.031358938131e+00 1.034778973495e+00 1.038381978596e+00 1.042162924735e+00 1.046126580096e+00 1.050267401732e+00 1.054589696797e+00 1.059087283826e+00 1.063763887155e+00 1.068612562846e+00 1.073636333447e+00 1.078827371152e+00 1.084187886668e+00 1.089709056915e+00 1.095392184174e+00 1.101227356227e+00 1.107214889979e+00 1.113343716166e+00 1.119613117097e+00 1.126010828274e+00 1.132535082836e+00 1.139172426447e+00 1.145920065527e+00 1.152763393430e+00 1.159698670213e+00 1.166710224666e+00 1.173793488165e+00 1.180931863730e+00 1.188120111452e+00 1.195340891047e+00 1.202588496040e+00 1.209845066988e+00 1.217104663554e+00 1.224349151893e+00 1.231572623936e+00 1.238756934063e+00 1.245896474930e+00 1.252973358122e+00 1.259982537717e+00 1.266906643972e+00 1.273741434911e+00 1.280470294958e+00 1.287089997167e+00 1.293584878459e+00 1.299952899734e+00 1.306179501803e+00 1.312263960174e+00 1.318192925445e+00 1.323967057966e+00 1.329574281211e+00 1.335016659998e+00 1.340283413478e+00 1.345377983374e+00 1.350290859465e+00 1.355026810238e+00 1.359577545998e+00 1.363949066205e+00 1.368134242181e+00 1.372140196966e+00 1.375960874132e+00 1.379604413014e+00 1.383065738691e+00 1.386353884806e+00 1.389464687667e+00 1.392407952974e+00 1.395180361612e+00 1.397792366881e+00 1.400241443812e+00 1.402538579060e+00 1.404681998218e+00 1.406683116761e+00 1.408540878874e+00 1.410267025042e+00 1.411861198919e+00 1.413335362190e+00 1.414689847600e+00 1.415936731126e+00 1.417077031426e+00 1.418122826724e+00 1.419075818893e+00 1.419947975779e+00 1.420741668957e+00 1.421468647764e+00 1.422131931548e+00 1.422742919224e+00 1.423305269289e+00 1.423829883228e+00 1.424321034600e+00 1.424788985122e+00 1.425238581706e+00 1.425679288689e+00 1.426116482992e+00 1.426558664761e+00 1.427011688192e+00 1.427482920932e+00 1.427978621686e+00 1.428504859283e+00 1.429068216177e+00 1.429673288364e+00 1.430326896327e+00 1.431031997065e+00 1.431795547578e+00 1.432618708923e+00 1.433508468434e+00 1.434464041336e+00 1.435492335777e+00 1.436590486848e+00 1.437765210815e+00 1.439011451080e+00 1.440335617189e+00 1.441730376187e+00 1.443201723999e+00 1.444739998560e+00 1.446350675454e+00 1.448021749164e+00 1.449758100575e+00 1.451545396487e+00 1.453387851066e+00 1.455268889319e+00 1.457192001925e+00 1.459138502100e+00 1.461111160244e+00 1.463089330478e+00 1.465075080967e+00 1.467046056278e+00 1.469003642420e+00 1.470924090174e+00 1.472808163377e+00 1.474631046985e+00 1.476393023991e+00 1.478068561732e+00 1.479657620145e+00 1.481134359075e+00 1.482498543376e+00 1.483724497252e+00 1.484811941433e+00 1.485735811104e+00 1.486495966122e+00 1.487068369973e+00 1.487453201397e+00 1.487627850373e+00 1.487592981752e+00 1.487327862305e+00 1.486833881295e+00 1.486092587180e+00 1.485106161517e+00 1.483858725836e+00 1.482353336772e+00 1.480576896364e+00 1.478533404495e+00 1.476212714585e+00 1.473619751944e+00 1.470747480155e+00 1.467601672985e+00 1.464178449049e+00 1.460484393617e+00 1.456518733938e+00 1.452288774061e+00 1.447796771212e+00 1.443050623294e+00 1.438055482295e+00 1.432819689335e+00 1.427351115231e+00 1.421658390103e+00 1.415751880105e+00 1.409640343506e+00 1.403336394293e+00 1.396848762262e+00 1.390192045086e+00 1.383374792072e+00 1.376413310719e+00 1.369315835617e+00 1.362100110214e+00 1.354773937230e+00 1.347356230300e+00 1.339854265136e+00 1.332287871280e+00 1.324663730964e+00 1.317002355311e+00 1.309309776937e+00 1.301606982932e+00 1.293899341595e+00 1.286208117458e+00 1.278538016291e+00 1.270910422378e+00 1.263329397310e+00 1.255816305825e+00 1.248374608031e+00 1.241025530149e+00 1.233771992829e+00 1.226634986554e+00 1.219616963846e+00 1.212738605818e+00 1.206001980014e+00 1.199427394887e+00 1.193016621619e+00 1.186789548345e+00 1.180747746217e+00 1.174910643816e+00 1.169279708401e+00 1.163873874758e+00 1.158694602880e+00 1.153760300129e+00 1.149072512819e+00 1.144649083449e+00 1.140491732521e+00 1.136617693325e+00 1.133028935981e+00 1.129742032258e+00 1.126759261287e+00 1.124096461401e+00 1.121756266584e+00 1.119753677422e+00 1.118091709782e+00 1.116784408031e+00 1.115835159016e+00 1.115256909127e+00 1.115053412859e+00 1.115236404760e+00 1.115810093544e+00 1.116784882846e+00 1.118165309688e+00 1.119960125875e+00 1.122174007431e+00 1.124813726472e+00 1.127883904873e+00 1.131388973604e+00 1.135333269456e+00 1.139718503243e+00 1.144548455123e+00 1.149821721157e+00 1.155541226413e+00 1.161702048913e+00 1.168305944307e+00 1.175344075587e+00 1.182816710838e+00 1.190710725626e+00 1.199024590520e+00 1.207740566410e+00 1.216855039276e+00 1.226345390938e+00 1.236205675047e+00 1.246408216909e+00 1.256944541111e+00 1.267781840275e+00 1.278908989265e+00 1.290288091649e+00 1.301905343785e+00 1.313717930797e+00 1.325709453401e+00 1.337832521960e+00 1.350068315117e+00 1.362365385973e+00 1.374702811368e+00 1.387025761210e+00 1.399311684714e+00 1.411503208219e+00 1.423576751322e+00 1.435473409410e+00 1.447169298532e+00 1.458605141444e+00 1.469757576100e+00 1.480568220101e+00 1.491015133592e+00 1.501042157282e+00 1.510629710004e+00 1.519725189837e+00 1.528312295819e+00 1.536343270948e+00 1.543805932362e+00 1.550658559563e+00 1.556893785293e+00 1.562476927921e+00 1.567405956108e+00 1.571653980579e+00 1.575224582411e+00 1.578099106681e+00 1.580286715565e+00 1.581777055213e+00 1.582584481526e+00 1.582706577211e+00 1.582162197662e+00 1.580956347998e+00 1.579111601880e+00 1.576639587615e+00 1.573565733867e+00 1.569907544726e+00 1.565692482173e+00 1.560943099714e+00 1.555688049645e+00 1.549954047875e+00 1.543770119153e+00 1.537166213375e+00 1.530170945825e+00 1.522816595199e+00 1.515130656627e+00 1.507146882504e+00 1.498891035809e+00 1.490397592071e+00 1.481690159120e+00 1.472803138629e+00 1.463756622879e+00 1.454585551214e+00 1.445307762407e+00 1.435955985493e+00 1.426545369494e+00 1.417107278900e+00 1.407653919563e+00 1.398214982308e+00 1.388799801566e+00 1.379436217853e+00 1.370130862271e+00 1.360909619147e+00 1.351776644036e+00 1.342755830826e+00 1.333849118046e+00 1.325078424305e+00 1.316443759637e+00 1.307965120680e+00 1.299640869276e+00 1.291489169253e+00 1.283507026701e+00 1.275710861904e+00 1.268096603180e+00 1.260679034076e+00 1.253453261125e+00 1.246432541186e+00 1.239611386041e+00 1.233001641391e+00 1.226597419894e+00 1.220409267726e+00 1.214431066154e+00 1.208672164326e+00 1.203126352963e+00 1.197801876781e+00 1.192692548992e+00 1.187805593458e+00 1.183134931124e+00 1.178686840499e+00 1.174455408680e+00 1.170446037031e+00 1.166653013274e+00 1.163080919639e+00 1.159724262260e+00 1.156586845962e+00 1.153663400655e+00 1.150956986035e+00 1.148462548128e+00 1.146182418105e+00 1.144111737494e+00 1.142252134018e+00 1.140598899864e+00 1.139152965682e+00 1.137909738185e+00 1.136869449143e+00 1.136027572121e+00 1.135383634640e+00 1.134933128964e+00 1.134674873620e+00 1.134604340238e+00 1.134719655042e+00 1.135016258206e+00 1.135491576338e+00 1.136140935626e+00 1.136961014539e+00 1.137946961776e+00 1.139094685938e+00 1.140399114339e+00 1.141855377182e+00 1.143458150171e+00 1.145201787964e+00 1.147080697174e+00 1.149088471678e+00 1.151219244887e+00 1.153465877256e+00 1.155822237961e+00 1.158280494651e+00 1.160834274672e+00 1.163475106107e+00 1.166196409128e+00 1.168989138571e+00 1.171846553459e+00 1.174759113958e+00 1.177719974293e+00 1.180719188899e+00 1.183749872149e+00 1.186801771340e+00 1.189868033191e+00 1.192938204434e+00 1.196005541981e+00 1.199059504938e+00 1.202093541972e+00 1.205097141759e+00 1.208064028625e+00 1.210983841736e+00 1.213850666756e+00 1.216654414120e+00 1.219389613298e+00 1.222046565025e+00 1.224620323760e+00 1.227101697790e+00 1.229486342382e+00 1.231765682487e+00 1.233936042795e+00 1.235989565515e+00 1.237923303542e+00 1.239730204662e+00 1.241408097801e+00 1.242950811318e+00 1.244356984297e+00 1.245621380905e+00 1.246743466354e+00 1.247718975496e+00 1.248548196867e+00 1.249227845858e+00 1.249759007679e+00 1.250139360243e+00 1.250370732936e+00 1.250451718003e+00 1.250384819932e+00 1.250169489232e+00 1.249808833010e+00 1.249303075042e+00 1.248655831448e+00 1.247868014038e+00 1.246943664274e+00 1.245884294632e+00 1.244694289353e+00 1.243375669591e+00 1.241933079118e+00 1.240368952043e+00 1.238688110628e+00 1.236893305476e+00 1.234989460934e+00 1.232979547613e+00 1.230868520885e+00 1.228659479435e+00 1.226357346799e+00 1.223965264318e+00 1.221488068998e+00 1.218928866011e+00 1.216292362025e+00 1.213581556652e+00 1.210800992447e+00 1.207953504676e+00 1.205043447643e+00 1.202073444795e+00 1.199047648269e+00 1.195968432605e+00 1.192839743559e+00 1.189663681326e+00 1.186443988582e+00 1.183182476983e+00 1.179882696742e+00 1.176546168142e+00 1.173176264935e+00 1.169774224008e+00 1.166343263951e+00 1.162884356196e+00 1.159400589280e+00 1.155892696857e+00 1.152363667050e+00 1.148814034388e+00 1.145246717393e+00 1.141662096483e+00 1.138063053165e+00 1.134449872351e+00 1.130825438513e+00 1.127190006351e+00 1.123546501687e+00 1.119895222298e+00 1.116239181162e+00 1.112578802986e+00 1.108917236961e+00 1.105255127051e+00 1.101595814109e+00 1.097940261945e+00 1.094292065266e+00 1.090652616980e+00 1.087025835890e+00 1.083413661304e+00 1.079820414855e+00 1.076248707353e+00 1.072703352073e+00 1.069187764013e+00 1.065707351469e+00 1.062266498687e+00 1.058871486117e+00 1.055528872524e+00 1.052252652313e+00 1.049094108672e+00 1.000000000000e+00 1.000000000000e+00 1.000000000000e+00 1.000000000000e+00 
1.000000000000e+00 1.000087211150e+00 1.000344676473e+00 1.000776546112e+00 1.001378150341e+00 1.002154384825e+00 1.003100748779e+00 1.004222342302e+00 1.005514834521e+00 1.006983508482e+00 1.008624161848e+00 1.010442221462e+00 1.012433556811e+00 1.014603687648e+00 1.016948487709e+00 1.019473504181e+00 1.022174534676e+00 1.025057076860e+00 1.028116759124e+00 1.031358938131e+00 1.034778973495e+00 1.038381978596e+00 1.042162924735e+00 1.046126580096e+00 1.050267401732e+00 1.054589696797e+00 1.059087283826e+00 1.063763887155e+00 1.068612562846e+00 1.073636333447e+00 1.078827371152e+00 1.084187886668e+00 1.089709056915e+00 1.095392184174e+00 1.101227356227e+00 1.107214889979e+00 1.113343716166e+00 1.119613117097e+00 1.126010828274e+00 1.132535082836e+00 1.139172426447e+00 1.145920065527e+00 1.152763393430e+00 1.159698670213e+00 1.166710224666e+00 1.173793488165e+00 1.180931863730e+00 1.188120111452e+00 1.195340891047e+00 1.202588496040e+00 1.209845066988e+00 1.217104663554e+00 1.224349151893e+00 1.231572623936e+00 1.238756934063e+00 1.245896474930e+00 1.252973358122e+00 1.259982537717e+00 1.266906643972e+00 1.273741434911e+00 1.280470294958e+00 1.287089997167e+00 1.293584878459e+00 1.299952899734e+00 1.306179501803e+00 1.312263960174e+00 1.318192925445e+00 1.323967057966e+00 1.329574281211e+00 1.335016659998e+00 1.340283413478e+00 1.345377983374e+00 1.350290859465e+00 1.355026810238e+00 1.359577545998e+00 1.363949066205e+00 1.368134242181e+00 1.372140196966e+00 1.375960874132e+00 1.379604413014e+00 1.383065738691e+00 1.386353884806e+00 1.389464687667e+00 1.392407952974e+00 1.395180361612e+00 1.397792366881e+00 1.400241443812e+00 1.402538579060e+00 1.404681998218e+00 1.406683116761e+00 1.408540878874e+00 1.410267025042e+00 1.411861198919e+00 1.413335362190e+00 1.414689847600e+00 1.415936731126e+00 1.417077031426e+00 1.418122826724e+00 1.419075818893e+00 1.419947975779e+00 1.420741668957e+00 1.421468647764e+00 1.422131931548e+00 1.422742919224e+00 1.423305269289e+00 1.423829883228e+00 1.424321034600e+00 1.424788985122e+00 1.425238581706e+00 1.425679288689e+00 1.426116482992e+00 1.426558664761e+00 1.427011688192e+00 1.427482920932e+00 1.427978621686e+00 1.428504859283e+00 1.429068216177e+00 1.429673288364e+00 1.430326896327e+00 1.431031997065e+00 1.431795547578e+00 1.432618708923e+00 1.433508468434e+00 1.434464041336e+00 1.435492335777e+00 1.436590486848e+00 1.437765210815e+00 1.439011451080e+00 1.440335617189e+00 1.441730376187e+00 1.443201723999e+00 1.444739998560e+00 1.446350675454e+00 1.448021749164e+00 1.449758100575e+00 1.451545396487e+00 1.453387851066e+00 1.455268889319e+00 1.457192001925e+00 1.459138502100e+00 1.461111160244e+00 1.463089330478e+00 1.465075080967e+00 1.467046056278e+00 1.469003642420e+00 1.470924090174e+00 1.472808163377e+00 1.474631046985e+00 1.476393023991e+00 1.478068561732e+00 1.479657620145e+00 1.481134359075e+00 1.482498543376e+00 1.483724497252e+00 1.484811941433e+00 1.485735811104e+00 1.486495966122e+00 1.487068369973e+00 1.487453201397e+00 1.487627850373e+00 1.487592981752e+00 1.487327862305e+00 1.486833881295e+00 1.486092587180e+00 1.485106161517e+00 1.483858725836e+00 1.482353336772e+00 1.480576896364e+00 1.478533404495e+00 1.476212714585e+00 1.473619751944e+00 1.470747480155e+00 1.467601672985e+00 1.464178449049e+00 1.460484393617e+00 1.456518733938e+00 1.452288774061e+00 1.447796771212e+00 1.443050623294e+00 1.438055482295e+00 1.432819689335e+00 1.427351115231e+00 1.421658390103e+00 1.415751880105e+00 1.409640343506e+00 1.403336394293e+00 1.396848762262e+00 1.390192045086e+00 1.383374792072e+00 1.376413310719e+00 1.369315835617e+00 1.362100110214e+00 1.354773937230e+00 1.347356230300e+00 1.339854265136e+00 1.332287871280e+00 1.324663730964e+00 1.317002355311e+00 1.309309776937e+00 1.301606982932e+00 1.293899341595e+00 1.286208117458e+00 1.278538016291e+00 1.270910422378e+00 1.263329397310e+00 1.255816305825e+00 1.248374608031e+00 1.241025530149e+00 1.233771992829e+00 1.226634986554e+00 1.219616963846e+00 1.212738605818e+00 1.206001980014e+00 1.199427394887e+00 1.193016621619e+00 1.186789548345e+00 1.180747746217e+00 1.174910643816e+00 1.169279708401e+00 1.163873874758e+00 1.158694602880e+00 1.153760300129e+00 1.149072512819e+00 1.144649083449e+00 1.140491732521e+00 1.136617693325e+00 1.133028935981e+00 1.129742032258e+00 1.126759261287e+00 1.124096461401e+00 1.121756266584e+00 1.119753677422e+00 1.118091709782e+00 1.116784408031e+00 1.115835159016e+00 1.115256909127e+00 1.115053412859e+00 1.115236404760e+00 1.115810093544e+00 1.116784882846e+00 1.118165309688e+00 1.119960125875e+00 1.122174007431e+00 1.124813726472e+00 1.127883904873e+00 1.131388973604e+00 1.135333269456e+00 1.139718503243e+00 1.144548455123e+00 1.149821721157e+00 1.155541226413e+00 1.161702048913e+00 1.168305944307e+00 1.175344075587e+00 1.182816710838e+00 1.190710725626e+00 1.199024590520e+00 1.207740566410e+00 1.216855039276e+00 1.226345390938e+00 1.236205675047e+00 1.246408216909e+00 1.256944541111e+00 1.267781840275e+00 1.278908989265e+00 1.290288091649e+00 1.301905343785e+00 1.313717930797e+00 1.325709453401e+00 1.337832521960e+00 1.350068315117e+00 1.362365385973e+00 1.374702811368e+00 1.387025761210e+00 1.399311684714e+00 1.411503208219e+00 1.423576751322e+00 1.435473409410e+00 1.447169298532e+00 1.458605141444e+00 1.469757576100e+00 1.480568220101e+00 1.491015133592e+00 1.501042157282e+00 1.510629710004e+00 1.519725189837e+00 1.528312295819e+00 1.536343270948e+00 1.543805932362e+00 1.550658559563e+00 1.556893785293e+00 1.562476927921e+00 1.567405956108e+00 1.571653980579e+00 1.575224582411e+00 1.578099106681e+00 1.580286715565e+00 1.581777055213e+00 1.582584481526e+00 1.582706577211e+00 1.582162197662e+00 1.580956347998e+00 1.579111601880e+00 1.576639587615e+00 1.573565733867e+00 1.569907544726e+00 1.565692482173e+00 1.560943099714e+00 1.555688049645e+00 1.549954047875e+00 1.543770119153e+00 1.537166213375e+00 1.530170945825e+00 1.522816595199e+00 1.515130656627e+00 1.507146882504e+00 1.498891035809e+00 1.490397592071e+00 1.481690159120e+00 1.472803138629e+00 1.463756622879e+00 1.454585551214e+00 1.445307762407e+00 1.435955985493e+00 1.426545369494e+00 1.417107278900e+00 1.407653919563e+00 1.398214982308e+00 1.388799801566e+00 1.379436217853e+00 1.370130862271e+00 1.360909619147e+00 1.351776644036e+00 1.342755830826e+00 1.333849118046e+00 1.325078424305e+00 1.316443759637e+00 1.307965120680e+00 1.299640869276e+00 1.291489169253e+00 1.283507026701e+00 1.275710861904e+00 1.268096603180e+00 1.260679034076e+00 1.253453261125e+00 1.246432541186e+00 1.239611386041e+00 1.233001641391e+00 1.226597419894e+00 1.220409267726e+00 1.214431066154e+00 1.208672164326e+00 1.203126352963e+00 1.197801876781e+00 1.192692548992e+00 1.187805593458e+00 1.183134931124e+00 1.178686840499e+00 1.174455408680e+00 1.170446037031e+00 1.166653013274e+00 1.163080919639e+00 1.159724262260e+00 1.156586845962e+00 1.153663400655e+00 1.150956986035e+00 1.148462548128e+00 1.146182418105e+00 1.144111737494e+00 1.142252134018e+00 1.140598899864e+00 1.139152965682e+00 1.137909738185e+00 1.136869449143e+00 1.136027572121e+00 1.135383634640e+00 1.134933128964e+00 1.134674873620e+00 1.134604340238e+00 1.134719655042e+00 1.135016258206e+00 1.135491576338e+00 1.136140935626e+00 1.136961014539e+00 1.137946961776e+00 1.139094685938e+00 1.140399114339e+00 1.141855377182e+00 1.143458150171e+00 1.145201787964e+00 1.147080697174e+00 1.149088471678e+00 1.151219244887e+00 1.153465877256e+00 1.155822237961e+00 1.158280494651e+00 1.160834274672e+00 1.163475106107e+00 1.166196409128e+00 1.168989138571e+00 1.171846553459e+00 1.174759113958e+00 1.177719974293e+00 1.180719188899e+00 1.183749872149e+00 1.186801771340e+00 1.189868033191e+00 1.192938204434e+00 1.196005541981e+00 1.199059504938e+00 1.202093541972e+00 1.205097141759e+00 1.208064028625e+00 1.210983841736e+00 1.213850666756e+00 1.216654414120e+00 1.219389613298e+00 1.222046565025e+00 1.224620323760e+00 1.227101697790e+00 1.229486342382e+00 1.231765682487e+00 1.233936042795e+00 1.235989565515e+00 1.237923303542e+00 1.239730204662e+00 1.241408097801e+00 1.242950811318e+00 1.244356984297e+00 1.245621380905e+00 1.246743466354e+00 1.247718975496e+00 1.248548196867e+00 1.249227845858e+00 1.249759007679e+00 1.250139360243e+00 1.250370732936e+00 1.250451718003e+00 1.250384819932e+00 1.250169489232e+00 1.249808833010e+00 1.249303075042e+00 1.248655831448e+00 1.247868014038e+00 1.246943664274e+00 1.245884294632e+00 1.244694289353e+00 1.243375669591e+00 1.241933079118e+00 1.240368952043e+00 1.238688110628e+00 1.236893305476e+00 1.234989460934e+00 1.232979547613e+00 1.230868520885e+00 1.228659479435e+00 1.226357346799e+00 1.223965264318e+00 1.221488068998e+00 1.218928866011e+00 1.216292362025e+00 1.213581556652e+00 1.210800992447e+00 1.207953504676e+00 1.205043447643e+00 1.202073444795e+00 1.199047648269e+00 1.195968432605e+00 1.192839743559e+00 1.189663681326e+00 1.186443988582e+00 1.183182476983e+00 1.179882696742e+00 1.176546168142e+00 1.173176264935e+00 1.169774224008e+00 1.166343263951e+00 1.162884356196e+00 1.159400589280e+00 1.155892696857e+00 1.152363667050e+00 1.148814034388e+00 1.145246717393e+00 1.141662096483e+00 1.138063053165e+00 1.134449872351e+00 1.130825438513e+00 1.127190006351e+00 1.123546501687e+00 1.119895222298e+00 1.116239181162e+00 1.112578802986e+00 1.108917236961e+00 1.105255127051e+00 1.101595814109e+00 1.097940261945e+00 1.094292065266e+00 1.090652616980e+00 1.087025835890e+00 1.083413661304e+00 1.079820414855e+00 1.076248707353e+00 1.072703352073e+00 1.069187764013e+00 1.065707351469e+00 1.062266498687e+00 1.058871486117e+00 1.055528872524e+00 1.052252652313e+00 1.049094108672e+00 1.000000000000e+00 1.000000000000e+00 1.000000000000e+00 1.000000000000e+00 
1.000000000000e+00 1.000085473804e+00 1.000345275838e+00 1.000774717458e+00 1.001378537952e+00 1.002152151918e+00 1.003100573693e+00 1.004219406696e+00 1.005513860628e+00 1.006979688342e+00 1.008622265048e+00 1.010437446353e+00 1.012430729492e+00 1.014598012927e+00 1.016944858886e+00 1.019467134174e+00 1.022170394746e+00 1.025050388874e+00 1.028112581659e+00 1.031352506681e+00 1.034775442408e+00 1.038376592365e+00 1.042160947371e+00 1.046123262473e+00 1.050268123315e+00 1.054589713862e+00 1.059092094409e+00 1.063768749787e+00 1.068623095261e+00 1.073647789566e+00 1.078845487508e+00 1.084207901789e+00 1.089736821369e+00 1.095422908118e+00 1.101266995218e+00 1.107258610570e+00 1.113397565235e+00 1.119672198025e+00 1.126081264139e+00 1.132611890839e+00 1.139261783998e+00 1.146016878073e+00 1.152873877948e+00 1.159817592489e+00 1.166843816808e+00 1.173936349280e+00 1.181090219764e+00 1.188288375700e+00 1.195525264102e+00 1.202783187029e+00 1.210056232884e+00 1.217326292575e+00 1.224587353916e+00 1.231821159079e+00 1.239021859546e+00 1.246171323743e+00 1.253264137569e+00 1.260282564962e+00 1.267221884751e+00 1.274065009594e+00 1.280808140290e+00 1.287435060703e+00 1.293943086491e+00 1.300317052275e+00 1.306555539076e+00 1.312644558733e+00 1.318584062275e+00 1.324361320910e+00 1.329977696283e+00 1.335421759459e+00 1.340696281945e+00 1.345791128122e+00 1.350710433311e+00 1.355445320580e+00 1.360001211402e+00 1.364370424371e+00 1.368559568060e+00 1.372562072222e+00 1.376385619687e+00 1.380024677003e+00 1.383487872736e+00 1.386770625497e+00 1.389882387688e+00 1.392819457562e+00 1.395591993259e+00 1.398197108403e+00 1.400645547820e+00 1.402935195258e+00 1.405077273727e+00 1.407070400772e+00 1.408926169812e+00 1.410643909940e+00 1.412235481716e+00 1.413700911504e+00 1.415052224632e+00 1.416290135470e+00 1.417426730860e+00 1.418463406595e+00 1.419412201333e+00 1.420275188502e+00 1.421064238232e+00 1.421782094567e+00 1.422440339910e+00 1.423042369580e+00 1.423599340656e+00 1.424115280790e+00 1.424600781299e+00 1.425060471015e+00 1.425504218287e+00 1.425937215657e+00 1.426368447177e+00 1.426803616119e+00 1.427250656264e+00 1.427715718193e+00 1.428205518573e+00 1.428726578745e+00 1.429284223878e+00 1.429885262863e+00 1.430533462535e+00 1.431235820381e+00 1.431994381862e+00 1.432816232666e+00 1.433701537447e+00 1.434657363123e+00 1.435681850407e+00 1.436781932645e+00 1.437953605249e+00 1.439203549760e+00 1.440525518160e+00 1.441925825627e+00 1.443395912098e+00 1.444941616406e+00 1.446552032187e+00 1.448232425210e+00 1.449969548802e+00 1.451768019278e+00 1.453612292920e+00 1.455506274758e+00 1.457432227714e+00 1.459393323369e+00 1.461369774113e+00 1.463364009847e+00 1.465354414133e+00 1.467342691128e+00 1.469305661433e+00 1.471244367752e+00 1.473134372899e+00 1.474976172078e+00 1.476744416458e+00 1.478439185468e+00 1.480034621476e+00 1.481530509720e+00 1.482900938917e+00 1.484145571295e+00 1.485238873531e+00 1.486180573724e+00 1.486945952562e+00 1.487534978014e+00 1.487924185364e+00 1.488113939381e+00 1.488082453605e+00 1.487830672848e+00 1.487338916276e+00 1.486608887709e+00 1.485623362844e+00 1.484384874392e+00 1.482878927890e+00 1.481108944462e+00 1.479063356527e+00 1.476746521243e+00 1.474149915136e+00 1.471278819432e+00 1.468127857792e+00 1.464703154316e+00 1.461002488768e+00 1.457032763237e+00 1.452794849332e+00 1.448296314390e+00 1.443541011625e+00 1.438537033425e+00 1.433291053808e+00 1.427811540774e+00 1.422107781992e+00 1.416188458496e+00 1.410065233689e+00 1.403746843145e+00 1.397247065554e+00 1.390574532816e+00 1.383744866856e+00 1.376766451673e+00 1.369656474795e+00 1.362422945575e+00 1.355084344410e+00 1.347648198911e+00 1.340134020645e+00 1.332548773526e+00 1.324912754429e+00 1.317232303855e+00 1.309528280859e+00 1.301806367440e+00 1.294087785000e+00 1.286377544370e+00 1.278697057023e+00 1.271050678161e+00 1.263459848722e+00 1.255928305062e+00 1.248477393161e+00 1.241110279987e+00 1.233848111005e+00 1.226693549190e+00 1.219667458665e+00 1.212772075742e+00 1.206027910975e+00 1.199436862306e+00 1.193019036909e+00 1.186776087804e+00 1.180727674484e+00 1.174875302558e+00 1.169238147654e+00 1.163817666051e+00 1.158632517180e+00 1.153684203091e+00 1.148990834492e+00 1.144554049290e+00 1.140391372559e+00 1.136504660275e+00 1.132910804153e+00 1.129611949406e+00 1.126624290660e+00 1.123950322504e+00 1.121605457250e+00 1.119592572650e+00 1.117926196238e+00 1.116609602456e+00 1.115656300968e+00 1.115069958148e+00 1.114862932926e+00 1.115039304684e+00 1.115610165239e+00 1.116579998635e+00 1.117958400469e+00 1.119750106698e+00 1.121962901605e+00 1.124601586204e+00 1.127671789782e+00 1.131178155724e+00 1.135123791314e+00 1.139512924889e+00 1.144345749539e+00 1.149625791831e+00 1.155349922371e+00 1.161520657562e+00 1.168131138528e+00 1.175182549201e+00 1.182663912546e+00 1.190574759047e+00 1.198899640039e+00 1.207636127574e+00 1.216764001813e+00 1.226278605123e+00 1.236154719226e+00 1.246385231387e+00 1.256939794814e+00 1.267808681110e+00 1.278956392722e+00 1.290370504320e+00 1.302010481201e+00 1.313861215910e+00 1.325877395002e+00 1.338041345723e+00 1.350303407993e+00 1.362643605404e+00 1.375008505541e+00 1.387376228043e+00 1.399690326351e+00 1.411927546378e+00 1.424029368726e+00 1.435971826610e+00 1.447695423075e+00 1.459176254958e+00 1.470355074161e+00 1.481208910147e+00 1.491680080399e+00 1.501747472130e+00 1.511356325046e+00 1.520488325357e+00 1.529092964453e+00 1.537155636665e+00 1.544631325838e+00 1.551509937484e+00 1.557753069891e+00 1.563355764191e+00 1.568287136241e+00 1.572547782499e+00 1.576114958413e+00 1.578994963139e+00 1.581173473313e+00 1.582662308401e+00 1.583455434710e+00 1.583569630683e+00 1.583006592140e+00 1.581787171377e+00 1.579920056790e+00 1.577429376082e+00 1.574330104076e+00 1.570648834599e+00 1.566406033113e+00 1.561629919509e+00 1.556345579713e+00 1.550582026590e+00 1.544368035221e+00 1.537732589249e+00 1.530707233792e+00 1.523320159462e+00 1.515604789071e+00 1.507587841887e+00 1.499303782405e+00 1.490777262126e+00 1.482042891550e+00 1.473124714690e+00 1.464053380058e+00 1.454851608083e+00 1.445551812839e+00 1.436170707823e+00 1.426740547570e+00 1.417274972344e+00 1.407804620547e+00 1.398340201387e+00 1.388910544896e+00 1.379523559731e+00 1.370206139837e+00 1.360963593780e+00 1.351820814152e+00 1.342780759999e+00 1.333866317662e+00 1.325078374296e+00 1.316437849526e+00 1.307943846181e+00 1.299615392444e+00 1.291450100313e+00 1.283465197003e+00 1.275657085807e+00 1.268041300351e+00 1.260613304784e+00 1.253387047570e+00 1.246357293242e+00 1.239536524523e+00 1.232919015564e+00 1.226515898719e+00 1.220321140783e+00 1.214344629277e+00 1.208580179468e+00 1.203036531431e+00 1.197707475326e+00 1.192600692393e+00 1.187710046191e+00 1.183042238130e+00 1.178591277541e+00 1.174362955815e+00 1.170351475294e+00 1.166561779953e+00 1.162988288536e+00 1.159635151555e+00 1.156497013022e+00 1.153577263154e+00 1.150870770989e+00 1.148380197090e+00 1.146100614436e+00 1.144033972572e+00 1.142175520376e+00 1.140526510635e+00 1.139082326470e+00 1.137843526337e+00 1.136805585100e+00 1.135968363484e+00 1.135327380322e+00 1.134881793193e+00 1.134627120210e+00 1.134561817423e+00 1.134681373679e+00 1.134983548595e+00 1.135463748501e+00 1.136119001317e+00 1.136944562391e+00 1.137936698928e+00 1.139090463248e+00 1.140401346595e+00 1.141864160829e+00 1.143473617857e+00 1.145224265078e+00 1.147110043784e+00 1.149125226133e+00 1.151263003903e+00 1.153517376553e+00 1.155880820657e+00 1.158347079090e+00 1.160907959944e+00 1.163556978813e+00 1.166285336284e+00 1.169086361055e+00 1.171950719111e+00 1.174871604108e+00 1.177839231631e+00 1.180846721476e+00 1.183883933220e+00 1.186943981769e+00 1.190016473645e+00 1.193094594125e+00 1.196167806773e+00 1.199229447223e+00 1.202268951647e+00 1.205279888952e+00 1.208251787180e+00 1.211178533302e+00 1.214049868402e+00 1.216860081120e+00 1.219599245401e+00 1.222262135396e+00 1.224839277924e+00 1.227326010316e+00 1.229713424154e+00 1.231997492208e+00 1.234169976767e+00 1.236227551033e+00 1.238162743723e+00 1.239972983027e+00 1.241651646497e+00 1.243196958056e+00 1.244603209264e+00 1.245869446439e+00 1.246990922010e+00 1.247967512678e+00 1.248795455644e+00 1.249475444128e+00 1.250004697607e+00 1.250384688211e+00 1.250613584582e+00 1.250693575573e+00 1.250623718687e+00 1.250406839642e+00 1.250042808532e+00 1.249535002550e+00 1.248884024301e+00 1.248093718996e+00 1.247165336263e+00 1.246103106612e+00 1.244908835407e+00 1.243587055571e+00 1.242140033155e+00 1.240572521227e+00 1.238887150153e+00 1.237088812082e+00 1.235180403513e+00 1.233166881405e+00 1.231051314331e+00 1.228838658293e+00 1.226532063238e+00 1.224136423659e+00 1.221654888402e+00 1.219092241247e+00 1.216451556079e+00 1.213737466822e+00 1.210952908164e+00 1.208102334941e+00 1.205188489289e+00 1.202215628812e+00 1.199186260149e+00 1.196104434803e+00 1.192972393225e+00 1.189793980072e+00 1.186571150057e+00 1.183307548244e+00 1.180004835551e+00 1.176666470653e+00 1.173293823645e+00 1.169890185350e+00 1.166456648485e+00 1.162996359340e+00 1.159510157083e+00 1.156001070260e+00 1.152469716474e+00 1.148919035378e+00 1.145349465184e+00 1.141763892114e+00 1.138162630390e+00 1.134548547186e+00 1.130921889050e+00 1.127285540102e+00 1.123639751981e+00 1.119987470900e+00 1.116329032333e+00 1.112667490501e+00 1.109003351874e+00 1.105339830653e+00 1.101677701038e+00 1.098020395856e+00 1.094369061978e+00 1.090727416837e+00 1.087097093346e+00 1.083482167771e+00 1.079884880008e+00 1.076309748945e+00 1.072759750219e+00 1.069239939821e+00 1.065754168986e+00 1.062308163181e+00 1.058906961350e+00 1.055558147392e+00 1.052274849432e+00 1.049109133229e+00 1.000000000000e+00 1.000000000000e+00 1.000000000000e+00 1.000000000000e+00 