# vtk DataFile Version 3.0
Vortex Output
ASCII
DATASET STRUCTURED_POINTS
FIELD FieldData 2
TIME 1 1 double
5.000000
CYCLE 1 1 int
2000
DIMENSIONS 514 130 1
ORIGIN 0 0 0
SPACING 1 1 1
POINT_DATA 66820
SCALARS u double 1
LOOKUP_TABLE default
1.000081880137e+00 1.000081880137e+00 1.000328913669e+00 1.000740474796e+00 1.001318385116e+00 1.002062114134e+00 1.002973731816e+00 1.004052915761e+00 1.005301955068e+00 1.006720695416e+00 1.008311610361e+00 1.010074661834e+00 1.012012460368e+00 1.014125019388e+00 1.016415026171e+00 1.018882468201e+00 1.021530036808e+00 1.024357603791e+00 1.027367779914e+00 1.030560219977e+00 1.033937358555e+00 1.037498521776e+00 1.041245862916e+00 1.045178259264e+00 1.049297470415e+00 1.053601798824e+00 1.058092493832e+00 1.062767154790e+00 1.067626404019e+00 1.072667011748e+00 1.077888861296e+00 1.083287775447e+00 1.088862797176e+00 1.094608697472e+00 1.100523594837e+00 1.106601124921e+00 1.112838421812e+00 1.119227930086e+00 1.125765770584e+00 1.132443175553e+00 1.139255261112e+00 1.146192066088e+00 1.153247752713e+00 1.160411229445e+00 1.167675800682e+00 1.175029353318e+00 1.182464475411e+00 1.189968185510e+00 1.197532539322e+00 1.205143880033e+00 1.212793951162e+00 1.220468645273e+00 1.228159640471e+00 1.235852624203e+00 1.243539470286e+00 1.251205914058e+00 1.258844286460e+00 1.266440616797e+00 1.273987940196e+00 1.281472804739e+00 1.288889168539e+00 1.296224289141e+00 1.303473226294e+00 1.310624093349e+00 1.317673181377e+00 1.324609554869e+00 1.331430811866e+00 1.338127009620e+00 1.344697073639e+00 1.351132043122e+00 1.357432138969e+00 1.363589323862e+00 1.369605035126e+00 1.375472060340e+00 1.381192935284e+00 1.386761143069e+00 1.392180170118e+00 1.397444045108e+00 1.402557036966e+00 1.407513559541e+00 1.412318484942e+00 1.416966450861e+00 1.421462750303e+00 1.425802090928e+00 1.429990008417e+00 1.434021141019e+00 1.437901098655e+00 1.441624330963e+00 1.445196367939e+00 1.448611375958e+00 1.451874668600e+00 1.454980062101e+00 1.457932537298e+00 1.460725523403e+00 1.463363574119e+00 1.465839726092e+00 1.468158034591e+00 1.470311170025e+00 1.472302641652e+00 1.474124811597e+00 1.475780619318e+00 1.477262207154e+00 1.478571944209e+00 1.479701870033e+00 1.480653804700e+00 1.481419827177e+00 1.482001249051e+00 1.482390350741e+00 1.482587989639e+00 1.482586821953e+00 1.482387342187e+00 1.481982835173e+00 1.481373564632e+00 1.480553647054e+00 1.479523199992e+00 1.478277373847e+00 1.476816243644e+00 1.475136197904e+00 1.473237374093e+00 1.471117591764e+00 1.468777151971e+00 1.466215480755e+00 1.463433135135e+00 1.460431298897e+00 1.457210864298e+00 1.453774894608e+00 1.450124680247e+00 1.446265251963e+00 1.442198342539e+00 1.437931001561e+00 1.433465428432e+00 1.428810704891e+00 1.423969501235e+00 1.418952906663e+00 1.413764047739e+00 1.408415959870e+00 1.402912194454e+00 1.397267637966e+00 1.391486221319e+00 1.385584556679e+00 1.379566898787e+00 1.373451434246e+00 1.367242679418e+00 1.360960222987e+00 1.354608778126e+00 1.348209147031e+00 1.341766176028e+00 1.335301680789e+00 1.328820581683e+00 1.322345500713e+00 1.315881380584e+00 1.309451439189e+00 1.303060599482e+00 1.296732464642e+00 1.290471906909e+00 1.284302706343e+00 1.278229665390e+00 1.272276536383e+00 1.266448044793e+00 1.260767715229e+00 1.255240200219e+00 1.249888601348e+00 1.244717512087e+00 1.239749419806e+00 1.234988880634e+00 1.230457579419e+00 1.226160061854e+00 1.222117023009e+00 1.218333026890e+00 1.214827590133e+00 1.211605321556e+00 1.208684366149e+00 1.206069396757e+00 1.203776984937e+00 1.201811873302e+00 1.200188844661e+00 1.198912696583e+00 1.197996189995e+00 1.197444139554e+00 1.197267046614e+00 1.197469741191e+00 1.198060346008e+00 1.199043745538e+00 1.200425415869e+00 1.202210135961e+00 1.204400422271e+00 1.207000789191e+00 1.210010488553e+00 1.213433589603e+00 1.217265774197e+00 1.221510461348e+00 1.226159462935e+00 1.231215323053e+00 1.236665699809e+00 1.242512027065e+00 1.248737555766e+00 1.255342375692e+00 1.262305124391e+00 1.269624329767e+00 1.277273875329e+00 1.285250541721e+00 1.293523402471e+00 1.302087355116e+00 1.310906710579e+00 1.319974413725e+00 1.329250180302e+00 1.338725014348e+00 1.348354337358e+00 1.358127317923e+00 1.367995526410e+00 1.377946502750e+00 1.387928554211e+00 1.397927902660e+00 1.407890320844e+00 1.417801123099e+00 1.427604404683e+00 1.437285072183e+00 1.446786508826e+00 1.456093784984e+00 1.465150618121e+00 1.473942861817e+00 1.482415660504e+00 1.490556289050e+00 1.498312418320e+00 1.505673367897e+00 1.512590397878e+00 1.519055445609e+00 1.525024341417e+00 1.530492126621e+00 1.535420056111e+00 1.539806639201e+00 1.543619240498e+00 1.546860046729e+00 1.549503010322e+00 1.551554023283e+00 1.552993867817e+00 1.553831974265e+00 1.554055965707e+00 1.553678576976e+00 1.552694343567e+00 1.551119066511e+00 1.548953823089e+00 1.546216875592e+00 1.542915373772e+00 1.539069497778e+00 1.534691947227e+00 1.529804268743e+00 1.524424120982e+00 1.518573860776e+00 1.512275460000e+00 1.505551540127e+00 1.498427706472e+00 1.490926328243e+00 1.483075953361e+00 1.474898227892e+00 1.466423962753e+00 1.457673670971e+00 1.448679777944e+00 1.439461325970e+00 1.430051753815e+00 1.420468374532e+00 1.410745098766e+00 1.400897333602e+00 1.390958987725e+00 1.380943465940e+00 1.370884272829e+00 1.360792790145e+00 1.350701788442e+00 1.340620673603e+00 1.330581222012e+00 1.320590969267e+00 1.310680502484e+00 1.300855640255e+00 1.291145643942e+00 1.281554804918e+00 1.272110973402e+00 1.262817128794e+00 1.253699667735e+00 1.244760487896e+00 1.236024524529e+00 1.227492829274e+00 1.219188894544e+00 1.211113158667e+00 1.203287708161e+00 1.195712590506e+00 1.188408534101e+00 1.181375401655e+00 1.174632614924e+00 1.168180036411e+00 1.162035829698e+00 1.156200015821e+00 1.150689539298e+00 1.145504708854e+00 1.140661273592e+00 1.136159926059e+00 1.132015222132e+00 1.128228297918e+00 1.124812490967e+00 1.121769400942e+00 1.119111089227e+00 1.116839596517e+00 1.114965613593e+00 1.113491556805e+00 1.112426616591e+00 1.111773485525e+00 1.111539708804e+00 1.111728175313e+00 1.112344698347e+00 1.113392247564e+00 1.114874618821e+00 1.116794548421e+00 1.119153477801e+00 1.121953605440e+00 1.125193688487e+00 1.128875078173e+00 1.132993521665e+00 1.137549216016e+00 1.142534591614e+00 1.147948402055e+00 1.153779491393e+00 1.160024914302e+00 1.166669714013e+00 1.173709038855e+00 1.181123986698e+00 1.188907650568e+00 1.197037118884e+00 1.205503344863e+00 1.214279429679e+00 1.223354168566e+00 1.232696785996e+00 1.242293966562e+00 1.252111256644e+00 1.262133341359e+00 1.272322374865e+00 1.282661216865e+00 1.293109002376e+00 1.303647003523e+00 1.314231797639e+00 1.324843373528e+00 1.335436302479e+00 1.345989664055e+00 1.356456666329e+00 1.366815925850e+00 1.377020019672e+00 1.387047618852e+00 1.396851484243e+00 1.406410924134e+00 1.415679767234e+00 1.424638594161e+00 1.433243233713e+00 1.441476206037e+00 1.449296291527e+00 1.456688621617e+00 1.463615863136e+00 1.470066401299e+00 1.476007665929e+00 1.481431870634e+00 1.486311980916e+00 1.490644503231e+00 1.494408558670e+00 1.497605254454e+00 1.500220280081e+00 1.502259439442e+00 1.503715127942e+00 1.504597651804e+00 1.504905873690e+00 1.504653999042e+00 1.503846683142e+00 1.502501240180e+00 1.500627514816e+00 1.498245326699e+00 1.495369149904e+00 1.492020693068e+00 1.488218419792e+00 1.483985269553e+00 1.479342990842e+00 1.474315080664e+00 1.468925835277e+00 1.463198653363e+00 1.457159644297e+00 1.450831500941e+00 1.444241445234e+00 1.437410930294e+00 1.430367649531e+00 1.423131373770e+00 1.415729704297e+00 1.408180388448e+00 1.400510459928e+00 1.392735405382e+00 1.384881307540e+00 1.376961255542e+00 1.369000088105e+00 1.361008451912e+00 1.353009733001e+00 1.345012170557e+00 1.337037564672e+00 1.329091847934e+00 1.321195165920e+00 1.313351296719e+00 1.305578716172e+00 1.297879236661e+00 1.290269691217e+00 1.282750138553e+00 1.275335827555e+00 1.268025286644e+00 1.260832261741e+00 1.253753975667e+00 1.246802767214e+00 1.239974771564e+00 1.233281024468e+00 1.226716778598e+00 1.220291873964e+00 1.214000868719e+00 1.207852513850e+00 1.201840841124e+00 1.195973615898e+00 1.190244490437e+00 1.184660342656e+00 1.179214570629e+00 1.173913256614e+00 1.168749648723e+00 1.163729118253e+00 1.158844847583e+00 1.154101574331e+00 1.149492480863e+00 1.145021740939e+00 1.140682585862e+00 1.136478688018e+00 1.132403361689e+00 1.128459833293e+00 1.124641521139e+00 1.120951254356e+00 1.117382565210e+00 1.113937927917e+00 1.110610989317e+00 1.107403905272e+00 1.104310430203e+00 1.101332432891e+00 1.098463762320e+00 1.095706026738e+00 1.093053152110e+00 1.090506508580e+00 1.088060078259e+00 1.085715012127e+00 1.083465325531e+00 1.081311966379e+00 1.079248959330e+00 1.077277063110e+00 1.075390287674e+00 1.073589214896e+00 1.071867816723e+00 1.070226509585e+00 1.068659205529e+00 1.067166166623e+00 1.065741225143e+00 1.064384500132e+00 1.063089726759e+00 1.061856893174e+00 1.060679623101e+00 1.059557787245e+00 1.058484886948e+00 1.057460690725e+00 1.056478570393e+00 1.055538209820e+00 1.054632848341e+00 1.053762105486e+00 1.052919089748e+00 1.052103379909e+00 1.051307960315e+00 1.050532396392e+00 1.049769560642e+00 1.049019036916e+00 1.048273604407e+00 1.047532902257e+00 1.046789641878e+00 1.046043560440e+00 1.045287335045e+00 1.044520850446e+00 1.043736791975e+00 1.042935249495e+00 1.042108969520e+00 1.041258313861e+00 1.040376155146e+00 1.039463204831e+00 1.038512540350e+00 1.037525313105e+00 1.036494899743e+00 1.035422996457e+00 1.034303391366e+00 1.033138446935e+00 1.031922495136e+00 1.030658705057e+00 1.029342107355e+00 1.027976839219e+00 1.026558809505e+00 1.025093308218e+00 1.023577328535e+00 1.022017522865e+00 1.020412202651e+00 1.018769617948e+00 1.017089660264e+00 1.015382437539e+00 1.013649709327e+00 1.011903724559e+00 1.010148424535e+00 1.008398522231e+00 1.006660605730e+00 1.004952984203e+00 1.003290032300e+00 1.001721932362e+00 1.000000000000e+00 1.000000000000e+00 1.000000000000e+00 1.000000000000e+00 
1.000000000000e+00 1.000081880137e+00 1.000328913669e+00 1.000740474796e+00 1.001318385116e+00 1.002062114134e+00 1.002973731816e+00 1.004052915761e+00 1.005301955068e+00 1.006720695416e+00 1.008311610361e+00 1.010074661834e+00 1.012012460368e+00 1.014125019388e+00 1.016415026171e+00 1.018882468201e+00 1.021530036808e+00 1.024357603791e+00 1.027367779914e+00 1.030560219977e+00 1.033937358555e+00 1.037498521776e+00 1.041245862916e+00 1.045178259264e+00 1.049297470415e+00 1.053601798824e+00 1.058092493832e+00 1.062767154790e+00 1.067626404019e+00 1.072667011748e+00 1.077888861296e+00 1.083287775447e+00 1.088862797176e+00 1.094608697472e+00 1.100523594837e+00 1.106601124921e+00 1.112838421812e+00 1.119227930086e+00 1.125765770584e+00 1.132443175553e+00 1.139255261112e+00 1.146192066088e+00 1.153247752713e+00 1.160411229445e+00 1.167675800682e+00 1.175029353318e+00 1.182464475411e+00 1.189968185510e+00 1.197532539322e+00 1.205143880033e+00 1.212793951162e+00 1.220468645273e+00 1.228159640471e+00 1.235852624203e+00 1.243539470286e+00 1.251205914058e+00 1.258844286460e+00 1.266440616797e+00 1.273987940196e+00 1.281472804739e+00 1.288889168539e+00 1.296224289141e+00 1.303473226294e+00 1.310624093349e+00 1.317673181377e+00 1.324609554869e+00 1.331430811866e+00 1.338127009620e+00 1.344697073639e+00 1.351132043122e+00 1.357432138969e+00 1.363589323862e+00 1.369605035126e+00 1.375472060340e+00 1.381192935284e+00 1.386761143069e+00 1.392180170118e+00 1.397444045108e+00 1.402557036966e+00 1.407513559541e+00 1.412318484942e+00 1.416966450861e+00 1.421462750303e+00 1.425802090928e+00 1.429990008417e+00 1.434021141019e+00 1.437901098655e+00 1.441624330963e+00 1.445196367939e+00 1.448611375958e+00 1.451874668600e+00 1.454980062101e+00 1.457932537298e+00 1.460725523403e+00 1.463363574119e+00 1.465839726092e+00 1.468158034591e+00 1.470311170025e+00 1.472302641652e+00 1.474124811597e+00 1.475780619318e+00 1.477262207154e+00 1.478571944209e+00 1.479701870033e+00 1.480653804700e+00 1.481419827177e+00 1.482001249051e+00 1.482390350741e+00 1.482587989639e+00 1.482586821953e+00 1.482387342187e+00 1.481982835173e+00 1.481373564632e+00 1.480553647054e+00 1.479523199992e+00 1.478277373847e+00 1.476816243644e+00 1.475136197904e+00 1.473237374093e+00 1.471117591764e+00 1.468777151971e+00 1.466215480755e+00 1.463433135135e+00 1.460431298897e+00 1.457210864298e+00 1.453774894608e+00 1.450124680247e+00 1.446265251963e+00 1.442198342539e+00 1.437931001561e+00 1.433465428432e+00 1.428810704891e+00 1.423969501235e+00 1.418952906663e+00 1.413764047739e+00 1.408415959870e+00 1.402912194454e+00 1.397267637966e+00 1.391486221319e+00 1.385584556679e+00 1.379566898787e+00 1.373451434246e+00 1.367242679418e+00 1.360960222987e+00 1.354608778126e+00 1.348209147031e+00 1.341766176028e+00 1.335301680789e+00 1.328820581683e+00 1.322345500713e+00 1.315881380584e+00 1.309451439189e+00 1.303060599482e+00 1.296732464642e+00 1.290471906909e+00 1.284302706343e+00 1.278229665390e+00 1.272276536383e+00 1.266448044793e+00 1.260767715229e+00 1.255240200219e+00 1.249888601348e+00 1.244717512087e+00 1.239749419806e+00 1.234988880634e+00 1.230457579419e+00 1.226160061854e+00 1.222117023009e+00 1.218333026890e+00 1.214827590133e+00 1.211605321556e+00 1.208684366149e+00 1.206069396757e+00 1.203776984937e+00 1.201811873302e+00 1.200188844661e+00 1.198912696583e+00 1.197996189995e+00 1.197444139554e+00 1.197267046614e+00 1.197469741191e+00 1.198060346008e+00 1.199043745538e+00 1.200425415869e+00 1.202210135961e+00 1.204400422271e+00 1.207000789191e+00 1.210010488553e+00 1.213433589603e+00 1.217265774197e+00 1.221510461348e+00 1.226159462935e+00 1.231215323053e+00 1.236665699809e+00 1.242512027065e+00 1.248737555766e+00 1.255342375692e+00 1.262305124391e+00 1.269624329767e+00 1.277273875329e+00 1.285250541721e+00 1.293523402471e+00 1.302087355116e+00 1.310906710579e+00 1.319974413725e+00 1.329250180302e+00 1.338725014348e+00 1.348354337358e+00 1.358127317923e+00 1.367995526410e+00 1.377946502750e+00 1.387928554211e+00 1.397927902660e+00 1.407890320844e+00 1.417801123099e+00 1.427604404683e+00 1.437285072183e+00 1.446786508826e+00 1.456093784984e+00 1.465150618121e+00 1.473942861817e+00 1.482415660504e+00 1.490556289050e+00 1.498312418320e+00 1.505673367897e+00 1.512590397878e+00 1.519055445609e+00 1.525024341417e+00 1.530492126621e+00 1.535420056111e+00 1.539806639201e+00 1.543619240498e+00 1.546860046729e+00 1.549503010322e+00 1.551554023283e+00 1.552993867817e+00 1.553831974265e+00 1.554055965707e+00 1.553678576976e+00 1.552694343567e+00 1.551119066511e+00 1.548953823089e+00 1.546216875592e+00 1.542915373772e+00 1.539069497778e+00 1.534691947227e+00 1.529804268743e+00 1.524424120982e+00 1.518573860776e+00 1.512275460000e+00 1.505551540127e+00 1.498427706472e+00 1.490926328243e+00 1.483075953361e+00 1.474898227892e+00 1.466423962753e+00 1.457673670971e+00 1.448679777944e+00 1.439461325970e+00 1.430051753815e+00 1.420468374532e+00 1.410745098766e+00 1.400897333602e+00 1.390958987725e+00 1.380943465940e+00 1.370884272829e+00 1.360792790145e+00 1.350701788442e+00 1.340620673603e+00 1.330581222012e+00 1.320590969267e+00 1.310680502484e+00 1.300855640255e+00 1.291145643942e+00 1.281554804918e+00 1.272110973402e+00 1.262817128794e+00 1.253699667735e+00 1.244760487896e+00 1.236024524529e+00 1.227492829274e+00 1.219188894544e+00 1.211113158667e+00 1.203287708161e+00 1.195712590506e+00 1.188408534101e+00 1.181375401655e+00 1.174632614924e+00 1.168180036411e+00 1.162035829698e+00 1.156200015821e+00 1.150689539298e+00 1.145504708854e+00 1.140661273592e+00 1.136159926059e+00 1.132015222132e+00 1.128228297918e+00 1.124812490967e+00 1.121769400942e+00 1.119111089227e+00 1.116839596517e+00 1.114965613593e+00 1.113491556805e+00 1.112426616591e+00 1.111773485525e+00 1.111539708804e+00 1.111728175313e+00 1.112344698347e+00 1.113392247564e+00 1.114874618821e+00 1.116794548421e+00 1.119153477801e+00 1.121953605440e+00 1.125193688487e+00 1.128875078173e+00 1.132993521665e+00 1.137549216016e+00 1.142534591614e+00 1.147948402055e+00 1.153779491393e+00 1.160024914302e+00 1.166669714013e+00 1.173709038855e+00 1.181123986698e+00 1.188907650568e+00 1.197037118884e+00 1.205503344863e+00 1.214279429679e+00 1.223354168566e+00 1.232696785996e+00 1.242293966562e+00 1.252111256644e+00 1.262133341359e+00 1.272322374865e+00 1.282661216865e+00 1.293109002376e+00 1.303647003523e+00 1.314231797639e+00 1.324843373528e+00 1.335436302479e+00 1.345989664055e+00 1.356456666329e+00 1.366815925850e+00 1.377020019672e+00 1.387047618852e+00 1.396851484243e+00 1.406410924134e+00 1.415679767234e+00 1.424638594161e+00 1.433243233713e+00 1.441476206037e+00 1.449296291527e+00 1.456688621617e+00 1.463615863136e+00 1.470066401299e+00 1.476007665929e+00 1.481431870634e+00 1.486311980916e+00 1.490644503231e+00 1.494408558670e+00 1.497605254454e+00 1.500220280081e+00 1.502259439442e+00 1.503715127942e+00 1.504597651804e+00 1.504905873690e+00 1.504653999042e+00 1.503846683142e+00 1.502501240180e+00 1.500627514816e+00 1.498245326699e+00 1.495369149904e+00 1.492020693068e+00 1.488218419792e+00 1.483985269553e+00 1.479342990842e+00 1.474315080664e+00 1.468925835277e+00 1.463198653363e+00 1.457159644297e+00 1.450831500941e+00 1.444241445234e+00 1.437410930294e+00 1.430367649531e+00 1.423131373770e+00 1.415729704297e+00 1.408180388448e+00 1.400510459928e+00 1.392735405382e+00 1.384881307540e+00 1.376961255542e+00 1.369000088105e+00 1.361008451912e+00 1.353009733001e+00 1.345012170557e+00 1.337037564672e+00 1.329091847934e+00 1.321195165920e+00 1.313351296719e+00 1.305578716172e+00 1.297879236661e+00 1.290269691217e+00 1.282750138553e+00 1.275335827555e+00 1.268025286644e+00 1.260832261741e+00 1.253753975667e+00 1.246802767214e+00 1.239974771564e+00 1.233281024468e+00 1.226716778598e+00 1.220291873964e+00 1.214000868719e+00 1.207852513850e+00 1.201840841124e+00 1.195973615898e+00 1.190244490437e+00 1.184660342656e+00 1.179214570629e+00 1.173913256614e+00 1.168749648723e+00 1.163729118253e+00 1.158844847583e+00 1.154101574331e+00 1.149492480863e+00 1.145021740939e+00 1.140682585862e+00 1.136478688018e+00 1.132403361689e+00 1.128459833293e+00 1.124641521139e+00 1.120951254356e+00 1.117382565210e+00 1.113937927917e+00 1.110610989317e+00 1.107403905272e+00 1.104310430203e+00 1.101332432891e+00 1.098463762320e+00 1.095706026738e+00 1.093053152110e+00 1.090506508580e+00 1.088060078259e+00 1.085715012127e+00 1.083465325531e+00 1.081311966379e+00 1.079248959330e+00 1.077277063110e+00 1.075390287674e+00 1.073589214896e+00 1.071867816723e+00 1.070226509585e+00 1.068659205529e+00 1.067166166623e+00 1.065741225143e+00 1.064384500132e+00 1.063089726759e+00 1.061856893174e+00 1.060679623101e+00 1.059557787245e+00 1.058484886948e+00 1.057460690725e+00 1.056478570393e+00 1.055538209820e+00 1.054632848341e+00 1.053762105486e+00 1.052919089748e+00 1.052103379909e+00 1.051307960315e+00 1.050532396392e+00 1.049769560642e+00 1.049019036916e+00 1.048273604407e+00 1.047532902257e+00 1.046789641878e+00 1.046043560440e+00 1.045287335045e+00 1.044520850446e+00 1.043736791975e+00 1.042935249495e+00 1.042108969520e+00 1.041258313861e+00 1.040376155146e+00 1.039463204831e+00 1.038512540350e+00 1.037525313105e+00 1.036494899743e+00 1.035422996457e+00 1.034303391366e+00 1.033138446935e+00 1.031922495136e+00 1.030658705057e+00 1.029342107355e+00 1.027976839219e+00 1.026558809505e+00 1.025093308218e+00 1.023577328535e+00 1.022017522865e+00 1.020412202651e+00 1.018769617948e+00 1.017089660264e+00 1.015382437539e+00 1.013649709327e+00 1.011903724559e+00 1.010148424535e+00 1.008398522231e+00 1.006660605730e+00 1.004952984203e+00 1.003290032300e+00 1.001721932362e+00 1.000000000000e+00 1.000000000000e+00 1.000000000000e+00 1.000000000000e+00 
1.000000000000e+00 1.000082297044e+00 1.000328600798e+00 1.000740583943e+00 1.001317616623e+00 1.002061651799e+00 1.002972270792e+00 1.004051662177e+00 1.005299601285e+00 1.006718485169e+00 1.008308236810e+00 1.010071419785e+00 1.012008045769e+00 1.014120790563e+00 1.016409683107e+00 1.018877444686e+00 1.021524037619e+00 1.024352149695e+00 1.027361580674e+00 1.030554894243e+00 1.033931620495e+00 1.037494097927e+00 1.041241470167e+00 1.045175740755e+00 1.049295542574e+00 1.053602428375e+00 1.058094391614e+00 1.062772415861e+00 1.067633726096e+00 1.072678620258e+00 1.077903430436e+00 1.083307659896e+00 1.088886633990e+00 1.094638965981e+00 1.100558877882e+00 1.106644018259e+00 1.112887433522e+00 1.119285760622e+00 1.125830829504e+00 1.132518253196e+00 1.139338642144e+00 1.146286613629e+00 1.153351598490e+00 1.160527291112e+00 1.167802028593e+00 1.175168701724e+00 1.182614686022e+00 1.190132233222e+00 1.197707932785e+00 1.205333602546e+00 1.212995258431e+00 1.220684522068e+00 1.228387075646e+00 1.236094603634e+00 1.243792709092e+00 1.251473406148e+00 1.259122473833e+00 1.266732515698e+00 1.274289727445e+00 1.281787539949e+00 1.289212777804e+00 1.296559901905e+00 1.303816537533e+00 1.310978332400e+00 1.318033835155e+00 1.324979984107e+00 1.331806320070e+00 1.338511119638e+00 1.345084930084e+00 1.351527358773e+00 1.357829922520e+00 1.363993501160e+00 1.370010499401e+00 1.375882967610e+00 1.381604080820e+00 1.387176923225e+00 1.392595296811e+00 1.397863157797e+00 1.402974776404e+00 1.407934803547e+00 1.412737813670e+00 1.417388968364e+00 1.421882986049e+00 1.426225355979e+00 1.430410791836e+00 1.434444934918e+00 1.438322363319e+00 1.442048707225e+00 1.445618301143e+00 1.449036617335e+00 1.452297665299e+00 1.455406631796e+00 1.458357149135e+00 1.461154012309e+00 1.463790455231e+00 1.466270797614e+00 1.468587885651e+00 1.470745503914e+00 1.472736153571e+00 1.474563048210e+00 1.476218418047e+00 1.477704893671e+00 1.479014538283e+00 1.480149410448e+00 1.481101537643e+00 1.481872438687e+00 1.482454260291e+00 1.482848032441e+00 1.483046195301e+00 1.483049359522e+00 1.482850461286e+00 1.482449804134e+00 1.481841052868e+00 1.481024310923e+00 1.479994179184e+00 1.478750662300e+00 1.477289504423e+00 1.475610718238e+00 1.473711391664e+00 1.471591650651e+00 1.469250112924e+00 1.466687116603e+00 1.463902974086e+00 1.460898323424e+00 1.457675309288e+00 1.454234942450e+00 1.450581305352e+00 1.446715836383e+00 1.442644625516e+00 1.438369573913e+00 1.433898810939e+00 1.429234715296e+00 1.424387449034e+00 1.419359863304e+00 1.414164108369e+00 1.408803484521e+00 1.403292050135e+00 1.397633515700e+00 1.391843735249e+00 1.385926778183e+00 1.379900153509e+00 1.373768229692e+00 1.367550006480e+00 1.361250086967e+00 1.354888778802e+00 1.348470854601e+00 1.342017733379e+00 1.335534295143e+00 1.329042864670e+00 1.322548373372e+00 1.316073841268e+00 1.309624203916e+00 1.303222964631e+00 1.296875026462e+00 1.290604165429e+00 1.284415227148e+00 1.278332053084e+00 1.272359418620e+00 1.266521027924e+00 1.260821585125e+00 1.255284459309e+00 1.249914293059e+00 1.244733927287e+00 1.239747961777e+00 1.234978519944e+00 1.230430184220e+00 1.226124173449e+00 1.222065081887e+00 1.218273036852e+00 1.214752673653e+00 1.211522838521e+00 1.208588232627e+00 1.205966225499e+00 1.203661599170e+00 1.201690040652e+00 1.200056411874e+00 1.198774497319e+00 1.197849217493e+00 1.197292223008e+00 1.197108464329e+00 1.197307255145e+00 1.197893591844e+00 1.198874271267e+00 1.200254267773e+00 1.202037571297e+00 1.204228986745e+00 1.206829391962e+00 1.209843251121e+00 1.213268022666e+00 1.217107633342e+00 1.221355816291e+00 1.226015741009e+00 1.231077119460e+00 1.236542127930e+00 1.242396183953e+00 1.248640229119e+00 1.255255151553e+00 1.262240424708e+00 1.269572228462e+00 1.277248358547e+00 1.285240183059e+00 1.293543651443e+00 1.302125311090e+00 1.310979155035e+00 1.320067013820e+00 1.329380888852e+00 1.338878126012e+00 1.348548788929e+00 1.358346110858e+00 1.368258371016e+00 1.378235207985e+00 1.388263374971e+00 1.398289579144e+00 1.408299410644e+00 1.418237445629e+00 1.428088571459e+00 1.437796154646e+00 1.447344923198e+00 1.456678052175e+00 1.465780715854e+00 1.474596981427e+00 1.483113110267e+00 1.491275173026e+00 1.499071162407e+00 1.506450249369e+00 1.513402770458e+00 1.519882034331e+00 1.525881265457e+00 1.531358842442e+00 1.536311316774e+00 1.540702919746e+00 1.544533829460e+00 1.547774722322e+00 1.550429532972e+00 1.552475751364e+00 1.553921009053e+00 1.554749740509e+00 1.554973046014e+00 1.554582280579e+00 1.553591753482e+00 1.551999565006e+00 1.549822767334e+00 1.547065796850e+00 1.543747913098e+00 1.539879394754e+00 1.535481159317e+00 1.530568762263e+00 1.525164219927e+00 1.519287735367e+00 1.512961866656e+00 1.506210790459e+00 1.499057069209e+00 1.491528157265e+00 1.483646122026e+00 1.475441000917e+00 1.466933921466e+00 1.458156832335e+00 1.449129544243e+00 1.439885286373e+00 1.430442252780e+00 1.420834377899e+00 1.411078021090e+00 1.401207312276e+00 1.391236640381e+00 1.381199892408e+00 1.371109430046e+00 1.360998532375e+00 1.350877549516e+00 1.340778859776e+00 1.330710881011e+00 1.320704866191e+00 1.310767433482e+00 1.300928548359e+00 1.291193203994e+00 1.281589971406e+00 1.272122424300e+00 1.262817679430e+00 1.253678116529e+00 1.244729377030e+00 1.235972882076e+00 1.227432807049e+00 1.219109850770e+00 1.211026753969e+00 1.203183722436e+00 1.195602107977e+00 1.188281839012e+00 1.181242931109e+00 1.174485231775e+00 1.168027473100e+00 1.161869594294e+00 1.156029090312e+00 1.150506136919e+00 1.145317025706e+00 1.140462282587e+00 1.135957011041e+00 1.131802166184e+00 1.128011654300e+00 1.124586900963e+00 1.121540576277e+00 1.118874576724e+00 1.116600262712e+00 1.114719959648e+00 1.113243608721e+00 1.112173883426e+00 1.111519168603e+00 1.111282385669e+00 1.111470229638e+00 1.112085770951e+00 1.113133830834e+00 1.114617399290e+00 1.116539109452e+00 1.118901568958e+00 1.121704888847e+00 1.124950981541e+00 1.128637101191e+00 1.132764149401e+00 1.137326200373e+00 1.142322840165e+00 1.147744669441e+00 1.153589681443e+00 1.159844758091e+00 1.166506065835e+00 1.173556587886e+00 1.180990485800e+00 1.188786742029e+00 1.196937398897e+00 1.205417421572e+00 1.214216685661e+00 1.223306210952e+00 1.232673725070e+00 1.242286462400e+00 1.252130085079e+00 1.262168288466e+00 1.272384813189e+00 1.282740147174e+00 1.293216314524e+00 1.303771012878e+00 1.314384817685e+00 1.325013140830e+00 1.335635443531e+00 1.346205446055e+00 1.356701900257e+00 1.367077519181e+00 1.377310822570e+00 1.387354287755e+00 1.397186749670e+00 1.406761299490e+00 1.416057696192e+00 1.425030555895e+00 1.433661216077e+00 1.441906765837e+00 1.449750797552e+00 1.457153825848e+00 1.464102365555e+00 1.470561274835e+00 1.476520613140e+00 1.481950421704e+00 1.486844840752e+00 1.491179808438e+00 1.494953952018e+00 1.498149644159e+00 1.500770226316e+00 1.502804808073e+00 1.504261428594e+00 1.505135916764e+00 1.505440640550e+00 1.505177654817e+00 1.504362804973e+00 1.503003600960e+00 1.501118696813e+00 1.498720539877e+00 1.495830004678e+00 1.492463874760e+00 1.488644601881e+00 1.484392621975e+00 1.479731287897e+00 1.474683953153e+00 1.469274196231e+00 1.463527539152e+00 1.457467144937e+00 1.451119975533e+00 1.444508200722e+00 1.437659543353e+00 1.430594687311e+00 1.423341508733e+00 1.415918811863e+00 1.408354104067e+00 1.400664021111e+00 1.392875271988e+00 1.385002139106e+00 1.377070196573e+00 1.369091285935e+00 1.361089598636e+00 1.353074534495e+00 1.345068735271e+00 1.337079231418e+00 1.329127018493e+00 1.321216888452e+00 1.313368153250e+00 1.305583540815e+00 1.297880689690e+00 1.290260467684e+00 1.282738886711e+00 1.275315175037e+00 1.268003791406e+00 1.260802550774e+00 1.253724450253e+00 1.246766114376e+00 1.239939181111e+00 1.233239297079e+00 1.226676848846e+00 1.220246702142e+00 1.213958100757e+00 1.207805307639e+00 1.201796530101e+00 1.195925585542e+00 1.190199746516e+00 1.184612520468e+00 1.179170340847e+00 1.173866519251e+00 1.168706738732e+00 1.163684208515e+00 1.158803942538e+00 1.154059121844e+00 1.149454164975e+00 1.144982281337e+00 1.140647360287e+00 1.136442680339e+00 1.132371660580e+00 1.128427675471e+00 1.124613725784e+00 1.120923296763e+00 1.117359016247e+00 1.113914484952e+00 1.110591997060e+00 1.107385265056e+00 1.104296283151e+00 1.101318865139e+00 1.098454733922e+00 1.095697788907e+00 1.093049505905e+00 1.090503850387e+00 1.088062071482e+00 1.085718178564e+00 1.083473211309e+00 1.081321199341e+00 1.079262987595e+00 1.077292601772e+00 1.075410704911e+00 1.073611294966e+00 1.071894864695e+00 1.070255361582e+00 1.068693119109e+00 1.067202013306e+00 1.065782229377e+00 1.064427553215e+00 1.063138033279e+00 1.061907349423e+00 1.060735425974e+00 1.059615824047e+00 1.058548358014e+00 1.057526461150e+00 1.056549854097e+00 1.055611837165e+00 1.054712056009e+00 1.053843677216e+00 1.053006293200e+00 1.052192940866e+00 1.051403184642e+00 1.050629941078e+00 1.049872775939e+00 1.049124500621e+00 1.048384716233e+00 1.047646150786e+00 1.046908480164e+00 1.046164378169e+00 1.045413641186e+00 1.044648926427e+00 1.043870203822e+00 1.043070161290e+00 1.042249003917e+00 1.041399508746e+00 1.040522187625e+00 1.039609977929e+00 1.038663781512e+00 1.037676781935e+00 1.036650367781e+00 1.035578071354e+00 1.034461880188e+00 1.033295796821e+00 1.032082537663e+00 1.030816718238e+00 1.029501933768e+00 1.028133579154e+00 1.026716300657e+00 1.025246464774e+00 1.023729965338e+00 1.022164360225e+00 1.020557013083e+00 1.018906921345e+00 1.017223166712e+00 1.015506462148e+00 1.013767880303e+00 1.012010151334e+00 1.010246636424e+00 1.008482427767e+00 1.006733625522e+00 1.005008851869e+00 1.003332130982e+00 1.001744260220e+00 1.000000000000e+00 1.000000000000e+00 1.000000000000e+00 1.000000000000e+00 