# vtk DataFile Version 3.0
Vortex Output
ASCII
DATASET STRUCTURED_POINTS
FIELD FieldData 2
TIME 1 1 double
5.000000
CYCLE 1 1 int
2000
DIMENSIONS 514 130 1
ORIGIN 0 0 0
SPACING 1 1 1
POINT_DATA 66820
SCALARS u double 1
LOOKUP_TABLE default
1.000081880136e+00 1.000081880136e+00 1.000328913668e+00 1.000740474795e+00 1.001318385114e+00 1.002062114131e+00 1.002973731812e+00 1.004052915756e+00 1.005301955060e+00 1.006720695407e+00 1.008311610350e+00 1.010074661821e+00 1.012012460352e+00 1.014125019370e+00 1.016415026151e+00 1.018882468177e+00 1.021530036781e+00 1.024357603762e+00 1.027367779881e+00 1.030560219941e+00 1.033937358515e+00 1.037498521733e+00 1.041245862868e+00 1.045178259212e+00 1.049297470359e+00 1.053601798764e+00 1.058092493768e+00 1.062767154721e+00 1.067626403947e+00 1.072667011671e+00 1.077888861215e+00 1.083287775361e+00 1.088862797086e+00 1.094608697377e+00 1.100523594737e+00 1.106601124815e+00 1.112838421702e+00 1.119227929972e+00 1.125765770465e+00 1.132443175429e+00 1.139255260983e+00 1.146192065955e+00 1.153247752575e+00 1.160411229303e+00 1.167675800535e+00 1.175029353167e+00 1.182464475255e+00 1.189968185350e+00 1.197532539158e+00 1.205143879865e+00 1.212793950990e+00 1.220468645096e+00 1.228159640291e+00 1.235852624019e+00 1.243539470099e+00 1.251205913867e+00 1.258844286266e+00 1.266440616599e+00 1.273987939995e+00 1.281472804535e+00 1.288889168333e+00 1.296224288932e+00 1.303473226083e+00 1.310624093136e+00 1.317673181161e+00 1.324609554651e+00 1.331430811647e+00 1.338127009399e+00 1.344697073417e+00 1.351132042899e+00 1.357432138746e+00 1.363589323637e+00 1.369605034901e+00 1.375472060114e+00 1.381192935059e+00 1.386761142844e+00 1.392180169894e+00 1.397444044884e+00 1.402557036744e+00 1.407513559320e+00 1.412318484722e+00 1.416966450642e+00 1.421462750087e+00 1.425802090713e+00 1.429990008205e+00 1.434021140809e+00 1.437901098449e+00 1.441624330760e+00 1.445196367740e+00 1.448611375762e+00 1.451874668409e+00 1.454980061914e+00 1.457932537115e+00 1.460725523224e+00 1.463363573946e+00 1.465839725923e+00 1.468158034427e+00 1.470311169866e+00 1.472302641498e+00 1.474124811448e+00 1.475780619174e+00 1.477262207015e+00 1.478571944075e+00 1.479701869902e+00 1.480653804575e+00 1.481419827055e+00 1.482001248932e+00 1.482390350625e+00 1.482587989526e+00 1.482586821841e+00 1.482387342076e+00 1.481982835062e+00 1.481373564520e+00 1.480553646940e+00 1.479523199876e+00 1.478277373727e+00 1.476816243519e+00 1.475136197771e+00 1.473237373954e+00 1.471117591615e+00 1.468777151811e+00 1.466215480583e+00 1.463433134948e+00 1.460431298694e+00 1.457210864077e+00 1.453774894367e+00 1.450124679985e+00 1.446265251677e+00 1.442198342227e+00 1.437931001220e+00 1.433465428062e+00 1.428810704488e+00 1.423969500798e+00 1.418952906188e+00 1.413764047225e+00 1.408415959315e+00 1.402912193855e+00 1.397267637321e+00 1.391486220626e+00 1.385584555934e+00 1.379566897989e+00 1.373451433393e+00 1.367242678508e+00 1.360960222017e+00 1.354608777093e+00 1.348209145933e+00 1.341766174864e+00 1.335301679556e+00 1.328820580379e+00 1.322345499336e+00 1.315881379132e+00 1.309451437660e+00 1.303060597874e+00 1.296732462953e+00 1.290471905137e+00 1.284302704487e+00 1.278229663448e+00 1.272276534352e+00 1.266448042673e+00 1.260767713016e+00 1.255240197913e+00 1.249888598948e+00 1.244717509591e+00 1.239749417211e+00 1.234988877941e+00 1.230457576626e+00 1.226160058960e+00 1.222117020013e+00 1.218333023790e+00 1.214827586928e+00 1.211605318246e+00 1.208684362733e+00 1.206069393235e+00 1.203776981309e+00 1.201811869567e+00 1.200188840819e+00 1.198912692634e+00 1.197996185939e+00 1.197444135392e+00 1.197267042347e+00 1.197469736819e+00 1.198060341533e+00 1.199043740961e+00 1.200425411192e+00 1.202210131185e+00 1.204400417398e+00 1.207000784225e+00 1.210010483497e+00 1.213433584459e+00 1.217265768970e+00 1.221510456041e+00 1.226159457553e+00 1.231215317602e+00 1.236665694293e+00 1.242512021490e+00 1.248737550139e+00 1.255342370019e+00 1.262305118679e+00 1.269624324025e+00 1.277273869564e+00 1.285250535942e+00 1.293523396687e+00 1.302087349336e+00 1.310906704813e+00 1.319974407982e+00 1.329250174595e+00 1.338725008685e+00 1.348354331751e+00 1.358127312383e+00 1.367995520948e+00 1.377946497378e+00 1.387928548939e+00 1.397927897499e+00 1.407890315805e+00 1.417801118194e+00 1.427604399921e+00 1.437285067576e+00 1.446786504382e+00 1.456093780713e+00 1.465150614031e+00 1.473942857916e+00 1.482415656800e+00 1.490556285550e+00 1.498312415028e+00 1.505673364819e+00 1.512590395019e+00 1.519055442971e+00 1.525024339002e+00 1.530492124431e+00 1.535420054146e+00 1.539806637460e+00 1.543619238980e+00 1.546860045431e+00 1.549503009241e+00 1.551554022414e+00 1.552993867156e+00 1.553831973806e+00 1.554055965443e+00 1.553678576900e+00 1.552694343672e+00 1.551119066788e+00 1.548953823529e+00 1.546216876186e+00 1.542915374510e+00 1.539069498651e+00 1.534691948225e+00 1.529804269855e+00 1.524424122199e+00 1.518573862087e+00 1.512275461394e+00 1.505551541594e+00 1.498427708001e+00 1.490926329825e+00 1.483075954986e+00 1.474898229549e+00 1.466423964433e+00 1.457673672664e+00 1.448679779641e+00 1.439461327663e+00 1.430051755495e+00 1.420468376191e+00 1.410745100395e+00 1.400897335195e+00 1.390958989273e+00 1.380943467438e+00 1.370884274268e+00 1.360792791521e+00 1.350701789747e+00 1.340620674832e+00 1.330581223160e+00 1.320590970329e+00 1.310680503454e+00 1.300855641129e+00 1.291145644715e+00 1.281554805587e+00 1.272110973962e+00 1.262817129241e+00 1.253699668066e+00 1.244760488107e+00 1.236024524617e+00 1.227492829237e+00 1.219188894378e+00 1.211113158369e+00 1.203287707729e+00 1.195712589937e+00 1.188408533393e+00 1.181375400807e+00 1.174632613933e+00 1.168180035275e+00 1.162035828416e+00 1.156200014390e+00 1.150689537718e+00 1.145504707124e+00 1.140661271710e+00 1.136159924024e+00 1.132015219944e+00 1.128228295577e+00 1.124812488472e+00 1.121769398294e+00 1.119111086427e+00 1.116839593565e+00 1.114965610491e+00 1.113491553554e+00 1.112426613193e+00 1.111773481983e+00 1.111539705120e+00 1.111728171490e+00 1.112344694390e+00 1.113392243478e+00 1.114874614609e+00 1.116794544090e+00 1.119153473357e+00 1.121953600891e+00 1.125193683839e+00 1.128875073436e+00 1.132993516847e+00 1.137549211127e+00 1.142534586666e+00 1.147948397059e+00 1.153779486360e+00 1.160024909246e+00 1.166669708949e+00 1.173709033796e+00 1.181123981660e+00 1.188907645568e+00 1.197037113938e+00 1.205503339990e+00 1.214279424897e+00 1.223354163894e+00 1.232696781453e+00 1.242293962169e+00 1.252111252422e+00 1.262133337329e+00 1.272322371048e+00 1.282661213283e+00 1.293108999051e+00 1.303647000478e+00 1.314231794894e+00 1.324843371107e+00 1.335436300403e+00 1.345989662344e+00 1.356456665004e+00 1.366815924931e+00 1.377020019178e+00 1.387047618801e+00 1.396851484652e+00 1.406410925017e+00 1.415679768607e+00 1.424638596036e+00 1.433243236100e+00 1.441476208943e+00 1.449296294960e+00 1.456688625582e+00 1.463615867633e+00 1.470066406329e+00 1.476007671490e+00 1.481431876719e+00 1.486311987517e+00 1.490644510338e+00 1.494408566271e+00 1.497605262534e+00 1.500220288622e+00 1.502259448424e+00 1.503715137344e+00 1.504597661602e+00 1.504905883859e+00 1.504654009556e+00 1.503846693973e+00 1.502501251300e+00 1.500627526197e+00 1.498245338311e+00 1.495369161717e+00 1.492020705051e+00 1.488218431917e+00 1.483985281788e+00 1.479343003159e+00 1.474315093035e+00 1.468925847673e+00 1.463198665756e+00 1.457159656662e+00 1.450831513253e+00 1.444241457469e+00 1.437410942429e+00 1.430367661545e+00 1.423131385642e+00 1.415729716011e+00 1.408180399985e+00 1.400510471273e+00 1.392735416522e+00 1.384881318462e+00 1.376961266234e+00 1.369000098558e+00 1.361008462117e+00 1.353009742951e+00 1.345012180247e+00 1.337037574097e+00 1.329091857090e+00 1.321195174805e+00 1.313351305331e+00 1.305578724511e+00 1.297879244726e+00 1.290269699010e+00 1.282750146075e+00 1.275335834809e+00 1.268025293632e+00 1.260832268468e+00 1.253753982135e+00 1.246802773428e+00 1.239974777529e+00 1.233281030189e+00 1.226716784079e+00 1.220291879212e+00 1.214000873738e+00 1.207852518647e+00 1.201840845704e+00 1.195973620267e+00 1.190244494601e+00 1.184660346621e+00 1.179214574400e+00 1.173913260198e+00 1.168749652126e+00 1.163729121481e+00 1.158844850641e+00 1.154101577225e+00 1.149492483598e+00 1.145021743522e+00 1.140682588297e+00 1.136478690311e+00 1.132403363845e+00 1.128459835317e+00 1.124641523037e+00 1.120951256132e+00 1.117382566869e+00 1.113937929463e+00 1.110610990755e+00 1.107403906607e+00 1.104310431439e+00 1.101332434032e+00 1.098463763370e+00 1.095706027702e+00 1.093053152991e+00 1.090506509383e+00 1.088060078987e+00 1.085715012783e+00 1.083465326119e+00 1.081311966903e+00 1.079248959793e+00 1.077277063516e+00 1.075390288025e+00 1.073589215197e+00 1.071867816976e+00 1.070226509793e+00 1.068659205695e+00 1.067166166751e+00 1.065741225235e+00 1.064384500191e+00 1.063089726787e+00 1.061856893175e+00 1.060679623076e+00 1.059557787198e+00 1.058484886881e+00 1.057460690640e+00 1.056478570293e+00 1.055538209707e+00 1.054632848216e+00 1.053762105353e+00 1.052919089607e+00 1.052103379763e+00 1.051307960166e+00 1.050532396242e+00 1.049769560491e+00 1.049019036768e+00 1.048273604261e+00 1.047532902116e+00 1.046789641743e+00 1.046043560312e+00 1.045287334924e+00 1.044520850334e+00 1.043736791872e+00 1.042935249403e+00 1.042108969439e+00 1.041258313791e+00 1.040376155087e+00 1.039463204785e+00 1.038512540315e+00 1.037525313083e+00 1.036494899732e+00 1.035422996458e+00 1.034303391378e+00 1.033138446957e+00 1.031922495168e+00 1.030658705099e+00 1.029342107405e+00 1.027976839276e+00 1.026558809569e+00 1.025093308288e+00 1.023577328609e+00 1.022017522942e+00 1.020412202730e+00 1.018769618027e+00 1.017089660342e+00 1.015382437615e+00 1.013649709400e+00 1.011903724627e+00 1.010148424596e+00 1.008398522285e+00 1.006660605774e+00 1.004952984238e+00 1.003290032325e+00 1.001721932376e+00 1.000000000000e+00 1.000000000000e+00 1.000000000000e+00 1.000000000000e+00 
1.000000000000e+00 1.000081880136e+00 1.000328913668e+00 1.000740474795e+00 1.001318385114e+00 1.002062114131e+00 1.002973731812e+00 1.004052915756e+00 1.005301955060e+00 1.006720695407e+00 1.008311610350e+00 1.010074661821e+00 1.012012460352e+00 1.014125019370e+00 1.016415026151e+00 1.018882468177e+00 1.021530036781e+00 1.024357603762e+00 1.027367779881e+00 1.030560219941e+00 1.033937358515e+00 1.037498521733e+00 1.041245862868e+00 1.045178259212e+00 1.049297470359e+00 1.053601798764e+00 1.058092493768e+00 1.062767154721e+00 1.067626403947e+00 1.072667011671e+00 1.077888861215e+00 1.083287775361e+00 1.088862797086e+00 1.094608697377e+00 1.100523594737e+00 1.106601124815e+00 1.112838421702e+00 1.119227929972e+00 1.125765770465e+00 1.132443175429e+00 1.139255260983e+00 1.146192065955e+00 1.153247752575e+00 1.160411229303e+00 1.167675800535e+00 1.175029353167e+00 1.182464475255e+00 1.189968185350e+00 1.197532539158e+00 1.205143879865e+00 1.212793950990e+00 1.220468645096e+00 1.228159640291e+00 1.235852624019e+00 1.243539470099e+00 1.251205913867e+00 1.258844286266e+00 1.266440616599e+00 1.273987939995e+00 1.281472804535e+00 1.288889168333e+00 1.296224288932e+00 1.303473226083e+00 1.310624093136e+00 1.317673181161e+00 1.324609554651e+00 1.331430811647e+00 1.338127009399e+00 1.344697073417e+00 1.351132042899e+00 1.357432138746e+00 1.363589323637e+00 1.369605034901e+00 1.375472060114e+00 1.381192935059e+00 1.386761142844e+00 1.392180169894e+00 1.397444044884e+00 1.402557036744e+00 1.407513559320e+00 1.412318484722e+00 1.416966450642e+00 1.421462750087e+00 1.425802090713e+00 1.429990008205e+00 1.434021140809e+00 1.437901098449e+00 1.441624330760e+00 1.445196367740e+00 1.448611375762e+00 1.451874668409e+00 1.454980061914e+00 1.457932537115e+00 1.460725523224e+00 1.463363573946e+00 1.465839725923e+00 1.468158034427e+00 1.470311169866e+00 1.472302641498e+00 1.474124811448e+00 1.475780619174e+00 1.477262207015e+00 1.478571944075e+00 1.479701869902e+00 1.480653804575e+00 1.481419827055e+00 1.482001248932e+00 1.482390350625e+00 1.482587989526e+00 1.482586821841e+00 1.482387342076e+00 1.481982835062e+00 1.481373564520e+00 1.480553646940e+00 1.479523199876e+00 1.478277373727e+00 1.476816243519e+00 1.475136197771e+00 1.473237373954e+00 1.471117591615e+00 1.468777151811e+00 1.466215480583e+00 1.463433134948e+00 1.460431298694e+00 1.457210864077e+00 1.453774894367e+00 1.450124679985e+00 1.446265251677e+00 1.442198342227e+00 1.437931001220e+00 1.433465428062e+00 1.428810704488e+00 1.423969500798e+00 1.418952906188e+00 1.413764047225e+00 1.408415959315e+00 1.402912193855e+00 1.397267637321e+00 1.391486220626e+00 1.385584555934e+00 1.379566897989e+00 1.373451433393e+00 1.367242678508e+00 1.360960222017e+00 1.354608777093e+00 1.348209145933e+00 1.341766174864e+00 1.335301679556e+00 1.328820580379e+00 1.322345499336e+00 1.315881379132e+00 1.309451437660e+00 1.303060597874e+00 1.296732462953e+00 1.290471905137e+00 1.284302704487e+00 1.278229663448e+00 1.272276534352e+00 1.266448042673e+00 1.260767713016e+00 1.255240197913e+00 1.249888598948e+00 1.244717509591e+00 1.239749417211e+00 1.234988877941e+00 1.230457576626e+00 1.226160058960e+00 1.222117020013e+00 1.218333023790e+00 1.214827586928e+00 1.211605318246e+00 1.208684362733e+00 1.206069393235e+00 1.203776981309e+00 1.201811869567e+00 1.200188840819e+00 1.198912692634e+00 1.197996185939e+00 1.197444135392e+00 1.197267042347e+00 1.197469736819e+00 1.198060341533e+00 1.199043740961e+00 1.200425411192e+00 1.202210131185e+00 1.204400417398e+00 1.207000784225e+00 1.210010483497e+00 1.213433584459e+00 1.217265768970e+00 1.221510456041e+00 1.226159457553e+00 1.231215317602e+00 1.236665694293e+00 1.242512021490e+00 1.248737550139e+00 1.255342370019e+00 1.262305118679e+00 1.269624324025e+00 1.277273869564e+00 1.285250535942e+00 1.293523396687e+00 1.302087349336e+00 1.310906704813e+00 1.319974407982e+00 1.329250174595e+00 1.338725008685e+00 1.348354331751e+00 1.358127312383e+00 1.367995520948e+00 1.377946497378e+00 1.387928548939e+00 1.397927897499e+00 1.407890315805e+00 1.417801118194e+00 1.427604399921e+00 1.437285067576e+00 1.446786504382e+00 1.456093780713e+00 1.465150614031e+00 1.473942857916e+00 1.482415656800e+00 1.490556285550e+00 1.498312415028e+00 1.505673364819e+00 1.512590395019e+00 1.519055442971e+00 1.525024339002e+00 1.530492124431e+00 1.535420054146e+00 1.539806637460e+00 1.543619238980e+00 1.546860045431e+00 1.549503009241e+00 1.551554022414e+00 1.552993867156e+00 1.553831973806e+00 1.554055965443e+00 1.553678576900e+00 1.552694343672e+00 1.551119066788e+00 1.548953823529e+00 1.546216876186e+00 1.542915374510e+00 1.539069498651e+00 1.534691948225e+00 1.529804269855e+00 1.524424122199e+00 1.518573862087e+00 1.512275461394e+00 1.505551541594e+00 1.498427708001e+00 1.490926329825e+00 1.483075954986e+00 1.474898229549e+00 1.466423964433e+00 1.457673672664e+00 1.448679779641e+00 1.439461327663e+00 1.430051755495e+00 1.420468376191e+00 1.410745100395e+00 1.400897335195e+00 1.390958989273e+00 1.380943467438e+00 1.370884274268e+00 1.360792791521e+00 1.350701789747e+00 1.340620674832e+00 1.330581223160e+00 1.320590970329e+00 1.310680503454e+00 1.300855641129e+00 1.291145644715e+00 1.281554805587e+00 1.272110973962e+00 1.262817129241e+00 1.253699668066e+00 1.244760488107e+00 1.236024524617e+00 1.227492829237e+00 1.219188894378e+00 1.211113158369e+00 1.203287707729e+00 1.195712589937e+00 1.188408533393e+00 1.181375400807e+00 1.174632613933e+00 1.168180035275e+00 1.162035828416e+00 1.156200014390e+00 1.150689537718e+00 1.145504707124e+00 1.140661271710e+00 1.136159924024e+00 1.132015219944e+00 1.128228295577e+00 1.124812488472e+00 1.121769398294e+00 1.119111086427e+00 1.116839593565e+00 1.114965610491e+00 1.113491553554e+00 1.112426613193e+00 1.111773481983e+00 1.111539705120e+00 1.111728171490e+00 1.112344694390e+00 1.113392243478e+00 1.114874614609e+00 1.116794544090e+00 1.119153473357e+00 1.121953600891e+00 1.125193683839e+00 1.128875073436e+00 1.132993516847e+00 1.137549211127e+00 1.142534586666e+00 1.147948397059e+00 1.153779486360e+00 1.160024909246e+00 1.166669708949e+00 1.173709033796e+00 1.181123981660e+00 1.188907645568e+00 1.197037113938e+00 1.205503339990e+00 1.214279424897e+00 1.223354163894e+00 1.232696781453e+00 1.242293962169e+00 1.252111252422e+00 1.262133337329e+00 1.272322371048e+00 1.282661213283e+00 1.293108999051e+00 1.303647000478e+00 1.314231794894e+00 1.324843371107e+00 1.335436300403e+00 1.345989662344e+00 1.356456665004e+00 1.366815924931e+00 1.377020019178e+00 1.387047618801e+00 1.396851484652e+00 1.406410925017e+00 1.415679768607e+00 1.424638596036e+00 1.433243236100e+00 1.441476208943e+00 1.449296294960e+00 1.456688625582e+00 1.463615867633e+00 1.470066406329e+00 1.476007671490e+00 1.481431876719e+00 1.486311987517e+00 1.490644510338e+00 1.494408566271e+00 1.497605262534e+00 1.500220288622e+00 1.502259448424e+00 1.503715137344e+00 1.504597661602e+00 1.504905883859e+00 1.504654009556e+00 1.503846693973e+00 1.502501251300e+00 1.500627526197e+00 1.498245338311e+00 1.495369161717e+00 1.492020705051e+00 1.488218431917e+00 1.483985281788e+00 1.479343003159e+00 1.474315093035e+00 1.468925847673e+00 1.463198665756e+00 1.457159656662e+00 1.450831513253e+00 1.444241457469e+00 1.437410942429e+00 1.430367661545e+00 1.423131385642e+00 1.415729716011e+00 1.408180399985e+00 1.400510471273e+00 1.392735416522e+00 1.384881318462e+00 1.376961266234e+00 1.369000098558e+00 1.361008462117e+00 1.353009742951e+00 1.345012180247e+00 1.337037574097e+00 1.329091857090e+00 1.321195174805e+00 1.313351305331e+00 1.305578724511e+00 1.297879244726e+00 1.290269699010e+00 1.282750146075e+00 1.275335834809e+00 1.268025293632e+00 1.260832268468e+00 1.253753982135e+00 1.246802773428e+00 1.239974777529e+00 1.233281030189e+00 1.226716784079e+00 1.220291879212e+00 1.214000873738e+00 1.207852518647e+00 1.201840845704e+00 1.195973620267e+00 1.190244494601e+00 1.184660346621e+00 1.179214574400e+00 1.173913260198e+00 1.168749652126e+00 1.163729121481e+00 1.158844850641e+00 1.154101577225e+00 1.149492483598e+00 1.145021743522e+00 1.140682588297e+00 1.136478690311e+00 1.132403363845e+00 1.128459835317e+00 1.124641523037e+00 1.120951256132e+00 1.117382566869e+00 1.113937929463e+00 1.110610990755e+00 1.107403906607e+00 1.104310431439e+00 1.101332434032e+00 1.098463763370e+00 1.095706027702e+00 1.093053152991e+00 1.090506509383e+00 1.088060078987e+00 1.085715012783e+00 1.083465326119e+00 1.081311966903e+00 1.079248959793e+00 1.077277063516e+00 1.075390288025e+00 1.073589215197e+00 1.071867816976e+00 1.070226509793e+00 1.068659205695e+00 1.067166166751e+00 1.065741225235e+00 1.064384500191e+00 1.063089726787e+00 1.061856893175e+00 1.060679623076e+00 1.059557787198e+00 1.058484886881e+00 1.057460690640e+00 1.056478570293e+00 1.055538209707e+00 1.054632848216e+00 1.053762105353e+00 1.052919089607e+00 1.052103379763e+00 1.051307960166e+00 1.050532396242e+00 1.049769560491e+00 1.049019036768e+00 1.048273604261e+00 1.047532902116e+00 1.046789641743e+00 1.046043560312e+00 1.045287334924e+00 1.044520850334e+00 1.043736791872e+00 1.042935249403e+00 1.042108969439e+00 1.041258313791e+00 1.040376155087e+00 1.039463204785e+00 1.038512540315e+00 1.037525313083e+00 1.036494899732e+00 1.035422996458e+00 1.034303391378e+00 1.033138446957e+00 1.031922495168e+00 1.030658705099e+00 1.029342107405e+00 1.027976839276e+00 1.026558809569e+00 1.025093308288e+00 1.023577328609e+00 1.022017522942e+00 1.020412202730e+00 1.018769618027e+00 1.017089660342e+00 1.015382437615e+00 1.013649709400e+00 1.011903724627e+00 1.010148424596e+00 1.008398522285e+00 1.006660605774e+00 1.004952984238e+00 1.003290032325e+00 1.001721932376e+00 1.000000000000e+00 1.000000000000e+00 1.000000000000e+00 1.000000000000e+00 
1.000000000000e+00 1.000082297044e+00 1.000328600798e+00 1.000740583942e+00 1.001317616621e+00 1.002061651796e+00 1.002972270787e+00 1.004051662172e+00 1.005299601278e+00 1.006718485160e+00 1.008308236799e+00 1.010071419772e+00 1.012008045754e+00 1.014120790546e+00 1.016409683086e+00 1.018877444663e+00 1.021524037592e+00 1.024352149666e+00 1.027361580641e+00 1.030554894207e+00 1.033931620455e+00 1.037494097884e+00 1.041241470120e+00 1.045175740704e+00 1.049295542519e+00 1.053602428315e+00 1.058094391550e+00 1.062772415793e+00 1.067633726023e+00 1.072678620182e+00 1.077903430354e+00 1.083307659810e+00 1.088886633899e+00 1.094638965886e+00 1.100558877782e+00 1.106644018154e+00 1.112887433412e+00 1.119285760507e+00 1.125830829385e+00 1.132518253072e+00 1.139338642015e+00 1.146286613496e+00 1.153351598352e+00 1.160527290970e+00 1.167802028446e+00 1.175168701573e+00 1.182614685866e+00 1.190132233062e+00 1.197707932621e+00 1.205333602378e+00 1.212995258259e+00 1.220684521891e+00 1.228387075466e+00 1.236094603450e+00 1.243792708904e+00 1.251473405957e+00 1.259122473639e+00 1.266732515501e+00 1.274289727244e+00 1.281787539746e+00 1.289212777598e+00 1.296559901696e+00 1.303816537322e+00 1.310978332187e+00 1.318033834939e+00 1.324979983890e+00 1.331806319851e+00 1.338511119417e+00 1.345084929862e+00 1.351527358550e+00 1.357829922296e+00 1.363993500936e+00 1.370010499176e+00 1.375882967385e+00 1.381604080594e+00 1.387176923001e+00 1.392595296586e+00 1.397863157574e+00 1.402974776181e+00 1.407934803326e+00 1.412737813450e+00 1.417388968145e+00 1.421882985832e+00 1.426225355765e+00 1.430410791624e+00 1.434444934710e+00 1.438322363113e+00 1.442048707023e+00 1.445618300943e+00 1.449036617140e+00 1.452297665108e+00 1.455406631609e+00 1.458357148952e+00 1.461154012131e+00 1.463790455057e+00 1.466270797446e+00 1.468587885487e+00 1.470745503756e+00 1.472736153418e+00 1.474563048062e+00 1.476218417904e+00 1.477704893532e+00 1.479014538149e+00 1.480149410318e+00 1.481101537518e+00 1.481872438566e+00 1.482454260173e+00 1.482848032325e+00 1.483046195188e+00 1.483049359411e+00 1.482850461176e+00 1.482449804024e+00 1.481841052757e+00 1.481024310811e+00 1.479994179069e+00 1.478750662181e+00 1.477289504299e+00 1.475610718108e+00 1.473711391526e+00 1.471591650504e+00 1.469250112765e+00 1.466687116432e+00 1.463902973901e+00 1.460898323223e+00 1.457675309069e+00 1.454234942211e+00 1.450581305092e+00 1.446715836098e+00 1.442644625206e+00 1.438369573574e+00 1.433898810571e+00 1.429234714895e+00 1.424387448598e+00 1.419359862832e+00 1.414164107857e+00 1.408803483968e+00 1.403292049538e+00 1.397633515057e+00 1.391843734558e+00 1.385926777440e+00 1.379900152713e+00 1.373768228841e+00 1.367550005571e+00 1.361250085998e+00 1.354888777770e+00 1.348470853506e+00 1.342017732217e+00 1.335534293912e+00 1.329042863368e+00 1.322548371997e+00 1.316073839818e+00 1.309624202389e+00 1.303222963025e+00 1.296875024775e+00 1.290604163659e+00 1.284415225293e+00 1.278332051142e+00 1.272359416590e+00 1.266521025804e+00 1.260821582914e+00 1.255284457004e+00 1.249914290659e+00 1.244733924792e+00 1.239747959183e+00 1.234978517251e+00 1.230430181428e+00 1.226124170555e+00 1.222065078890e+00 1.218273033751e+00 1.214752670449e+00 1.211522835211e+00 1.208588229211e+00 1.205966221977e+00 1.203661595541e+00 1.201690036916e+00 1.200056408031e+00 1.198774493369e+00 1.197849213436e+00 1.197292218845e+00 1.197108460060e+00 1.197307250771e+00 1.197893587366e+00 1.198874266688e+00 1.200254263093e+00 1.202037566518e+00 1.204228981869e+00 1.206829386992e+00 1.209843246060e+00 1.213268017518e+00 1.217107628110e+00 1.221355810979e+00 1.226015735622e+00 1.231077114002e+00 1.236542122407e+00 1.242396178371e+00 1.248640223485e+00 1.255255145872e+00 1.262240418989e+00 1.269572222711e+00 1.277248352773e+00 1.285240177271e+00 1.293543645649e+00 1.302125305300e+00 1.310979149259e+00 1.320067008067e+00 1.329380883134e+00 1.338878120338e+00 1.348548783311e+00 1.358346105307e+00 1.368258365543e+00 1.378235202601e+00 1.388263369688e+00 1.398289573973e+00 1.408299405595e+00 1.418237440714e+00 1.428088566689e+00 1.437796150030e+00 1.447344918745e+00 1.456678047897e+00 1.465780711758e+00 1.474596977521e+00 1.483113106558e+00 1.491275169521e+00 1.499071159112e+00 1.506450246289e+00 1.513402767597e+00 1.519882031692e+00 1.525881263043e+00 1.531358840253e+00 1.536311314811e+00 1.540702918009e+00 1.544533827946e+00 1.547774721029e+00 1.550429531897e+00 1.552475750502e+00 1.553921008400e+00 1.554749740058e+00 1.554973045759e+00 1.554582280513e+00 1.553591753597e+00 1.551999565292e+00 1.549822767785e+00 1.547065797455e+00 1.543747913848e+00 1.539879395638e+00 1.535481160327e+00 1.530568763387e+00 1.525164221155e+00 1.519287736689e+00 1.512961868062e+00 1.506210791937e+00 1.499057070750e+00 1.491528158858e+00 1.483646123661e+00 1.475441002584e+00 1.466933923156e+00 1.458156834038e+00 1.449129545951e+00 1.439885288075e+00 1.430442254469e+00 1.420834379566e+00 1.411078022728e+00 1.401207313877e+00 1.391236641937e+00 1.381199893912e+00 1.371109431492e+00 1.360998533757e+00 1.350877550827e+00 1.340778861011e+00 1.330710882165e+00 1.320704867257e+00 1.310767434457e+00 1.300928549237e+00 1.291193204771e+00 1.281589972078e+00 1.272122424863e+00 1.262817679881e+00 1.253678116863e+00 1.244729377244e+00 1.235972882167e+00 1.227432807014e+00 1.219109850606e+00 1.211026753673e+00 1.203183722006e+00 1.195602107410e+00 1.188281838306e+00 1.181242930262e+00 1.174485230785e+00 1.168027471965e+00 1.161869593012e+00 1.156029088882e+00 1.150506135339e+00 1.145317023975e+00 1.140462280704e+00 1.135957009006e+00 1.131802163996e+00 1.128011651958e+00 1.124586898467e+00 1.121540573628e+00 1.118874573922e+00 1.116600259758e+00 1.114719956543e+00 1.113243605467e+00 1.112173880024e+00 1.111519165057e+00 1.111282381980e+00 1.111470225811e+00 1.112085766989e+00 1.113133826742e+00 1.114617395072e+00 1.116539105114e+00 1.118901564506e+00 1.121704884289e+00 1.124950976884e+00 1.128637096444e+00 1.132764144572e+00 1.137326195472e+00 1.142322835203e+00 1.147744664430e+00 1.153589676396e+00 1.159844753020e+00 1.166506060754e+00 1.173556582810e+00 1.180990480744e+00 1.188786737009e+00 1.196937393931e+00 1.205417416678e+00 1.214216680857e+00 1.223306206256e+00 1.232673720502e+00 1.242286457981e+00 1.252130080830e+00 1.262168284408e+00 1.272384809343e+00 1.282740143562e+00 1.293216311168e+00 1.303771009800e+00 1.314384814907e+00 1.325013138374e+00 1.335635441419e+00 1.346205444308e+00 1.356701898895e+00 1.367077518225e+00 1.377310822038e+00 1.387354287665e+00 1.397186750040e+00 1.406761300335e+00 1.416057697527e+00 1.425030557731e+00 1.433661218426e+00 1.441906768707e+00 1.449750800950e+00 1.457153829778e+00 1.464102370020e+00 1.470561279834e+00 1.476520618671e+00 1.481950427761e+00 1.486844847328e+00 1.491179815522e+00 1.494953959598e+00 1.498149652219e+00 1.500770234840e+00 1.502804817040e+00 1.504261437983e+00 1.505135926551e+00 1.505440650710e+00 1.505177665324e+00 1.504362815798e+00 1.503003612077e+00 1.501118708191e+00 1.498720551487e+00 1.495830016490e+00 1.492463886744e+00 1.488644614007e+00 1.484392634212e+00 1.479731300216e+00 1.474683965526e+00 1.469274208629e+00 1.463527551548e+00 1.457467157305e+00 1.451119987848e+00 1.444508212959e+00 1.437659555490e+00 1.430594699326e+00 1.423341520607e+00 1.415918823577e+00 1.408354115604e+00 1.400664032456e+00 1.392875283127e+00 1.385002150026e+00 1.377070207263e+00 1.369091296385e+00 1.361089608839e+00 1.353074544442e+00 1.345068744957e+00 1.337079240839e+00 1.329127027644e+00 1.321216897331e+00 1.313368161856e+00 1.305583549148e+00 1.297880697749e+00 1.290260475470e+00 1.282738894227e+00 1.275315182284e+00 1.268003798387e+00 1.260802557493e+00 1.253724456714e+00 1.246766120583e+00 1.239939187069e+00 1.233239302792e+00 1.226676854320e+00 1.220246707382e+00 1.213958105769e+00 1.207805312428e+00 1.201796534674e+00 1.195925589904e+00 1.190199750673e+00 1.184612524425e+00 1.179170344612e+00 1.173866522829e+00 1.168706742128e+00 1.163684211735e+00 1.158803945589e+00 1.154059124731e+00 1.149454167704e+00 1.144982283913e+00 1.140647362716e+00 1.136442682625e+00 1.132371662730e+00 1.128427677489e+00 1.124613727675e+00 1.120923298533e+00 1.117359017900e+00 1.113914486493e+00 1.110591998494e+00 1.107385266385e+00 1.104296284382e+00 1.101318866275e+00 1.098454734968e+00 1.095697789866e+00 1.093049506782e+00 1.090503851185e+00 1.088062072205e+00 1.085718179215e+00 1.083473211893e+00 1.081321199861e+00 1.079262988054e+00 1.077292602174e+00 1.075410705259e+00 1.073611295263e+00 1.071894864945e+00 1.070255361786e+00 1.068693119272e+00 1.067202013431e+00 1.065782229466e+00 1.064427553270e+00 1.063138033304e+00 1.061907349421e+00 1.060735425947e+00 1.059615823997e+00 1.058548357944e+00 1.057526461063e+00 1.056549853994e+00 1.055611837049e+00 1.054712055882e+00 1.053843677080e+00 1.053006293058e+00 1.052192940718e+00 1.051403184491e+00 1.050629940926e+00 1.049872775787e+00 1.049124500471e+00 1.048384716087e+00 1.047646150643e+00 1.046908480028e+00 1.046164378040e+00 1.045413641065e+00 1.044648926315e+00 1.043870203719e+00 1.043070161198e+00 1.042249003835e+00 1.041399508675e+00 1.040522187567e+00 1.039609977882e+00 1.038663781478e+00 1.037676781912e+00 1.036650367770e+00 1.035578071354e+00 1.034461880200e+00 1.033295796844e+00 1.032082537696e+00 1.030816718280e+00 1.029501933819e+00 1.028133579212e+00 1.026716300723e+00 1.025246464844e+00 1.023729965413e+00 1.022164360303e+00 1.020557013163e+00 1.018906921425e+00 1.017223166792e+00 1.015506462225e+00 1.013767880377e+00 1.012010151403e+00 1.010246636486e+00 1.008482427821e+00 1.006733625568e+00 1.005008851905e+00 1.003332131007e+00 1.001744260233e+00 1.000000000000e+00 1.000000000000e+00 1.000000000000e+00 1.000000000000e+00 