# vtk DataFile Version 3.0
Vortex Output
ASCII
DATASET STRUCTURED_POINTS
FIELD FieldData 2
TIME 1 1 double
5.000000
CYCLE 1 1 int
2000
DIMENSIONS 514 130 1
ORIGIN 0 0 0
SPACING 1 1 1
POINT_DATA 66820
SCALARS u double 1
LOOKUP_TABLE default
1.000081883119e+00 1.000081883119e+00 1.000328925375e+00 1.000740501916e+00 1.001318434052e+00 1.002062192255e+00 1.002973846157e+00 1.004053074254e+00 1.005302165281e+00 1.006720965739e+00 1.008311948802e+00 1.010075077137e+00 1.012012960882e+00 1.014125614111e+00 1.016415723702e+00 1.018883277691e+00 1.021530967011e+00 1.024358663913e+00 1.027368978771e+00 1.030561566726e+00 1.033938861980e+00 1.037500190883e+00 1.041247706356e+00 1.045180285784e+00 1.049299688434e+00 1.053604216724e+00 1.058095119693e+00 1.062769996520e+00 1.067629469260e+00 1.072670307829e+00 1.077892395318e+00 1.083291554057e+00 1.088866826838e+00 1.094612984055e+00 1.100528144079e+00 1.106605941820e+00 1.112843511291e+00 1.119233296191e+00 1.125771417339e+00 1.132449105970e+00 1.139261478237e+00 1.146198571822e+00 1.153254549049e+00 1.160418317095e+00 1.167683180507e+00 1.175037024771e+00 1.182472438138e+00 1.189976437632e+00 1.197541079185e+00 1.205152704345e+00 1.212803056880e+00 1.220478027606e+00 1.228169294886e+00 1.235862544317e+00 1.243549649956e+00 1.251216345197e+00 1.258854961181e+00 1.266451525179e+00 1.273999072442e+00 1.281484148936e+00 1.288900712785e+00 1.296236019338e+00 1.303485128197e+00 1.310636150445e+00 1.317685376797e+00 1.324621869404e+00 1.331443225690e+00 1.338139500505e+00 1.344709618413e+00 1.351144616156e+00 1.357444713309e+00 1.363601870052e+00 1.369617521938e+00 1.375484454020e+00 1.381205199801e+00 1.386773239867e+00 1.392192057804e+00 1.397455679803e+00 1.402568371346e+00 1.407524543885e+00 1.412329065442e+00 1.416976571466e+00 1.421472350213e+00 1.425811107335e+00 1.429998373099e+00 1.434028784082e+00 1.437907944141e+00 1.441630301700e+00 1.445201380084e+00 1.448615345047e+00 1.451877502954e+00 1.454981670173e+00 1.457932819867e+00 1.460724382308e+00 1.463360903179e+00 1.465835421290e+00 1.468151983679e+00 1.470303264218e+00 1.472292763865e+00 1.474112849696e+00 1.475766452964e+00 1.477245722625e+00 1.478553019833e+00 1.479680392581e+00 1.480629653409e+00 1.481392891680e+00 1.481971411995e+00 1.482357507203e+00 1.482552028341e+00 1.482547646042e+00 1.482344849831e+00 1.481936941771e+00 1.481324181456e+00 1.480500704479e+00 1.479466625076e+00 1.478217114810e+00 1.476752246395e+00 1.475068431375e+00 1.473165805860e+00 1.471042214074e+00 1.468697956610e+00 1.466132485560e+00 1.463346358269e+00 1.460340785620e+00 1.457116660852e+00 1.453677075020e+00 1.450023320029e+00 1.446160454714e+00 1.442090213675e+00 1.437819674493e+00 1.433351038553e+00 1.428693415094e+00 1.423849476406e+00 1.418830338310e+00 1.413639129237e+00 1.408288909981e+00 1.402783233572e+00 1.397137010319e+00 1.391354172454e+00 1.385451354148e+00 1.379432811113e+00 1.373316749894e+00 1.367107687478e+00 1.360825230240e+00 1.354474091670e+00 1.348075089267e+00 1.341633069438e+00 1.335169860665e+00 1.328690383257e+00 1.322217269470e+00 1.315755461929e+00 1.309328186183e+00 1.302940365217e+00 1.296615607243e+00 1.290358784785e+00 1.284193680297e+00 1.278125096902e+00 1.272176786673e+00 1.266353476278e+00 1.260678687390e+00 1.255157074367e+00 1.249811733149e+00 1.244647259755e+00 1.239686133143e+00 1.234932912765e+00 1.230409272209e+00 1.226119761279e+00 1.222085060818e+00 1.218309739701e+00 1.214813297210e+00 1.211600347696e+00 1.208689015458e+00 1.206083979363e+00 1.203801786667e+00 1.201847186228e+00 1.200234932598e+00 1.198969829444e+00 1.198064605116e+00 1.197524079977e+00 1.197358718797e+00 1.197573359004e+00 1.198176084359e+00 1.199171785200e+00 1.200565892579e+00 1.202363189306e+00 1.204566141224e+00 1.207179264367e+00 1.210201754392e+00 1.213637679620e+00 1.217482660183e+00 1.221740111283e+00 1.226401777680e+00 1.231470196573e+00 1.236932953926e+00 1.242791473577e+00 1.249028929934e+00 1.255645399780e+00 1.262619440646e+00 1.269949564863e+00 1.277609573649e+00 1.285596230148e+00 1.293878524842e+00 1.302451336731e+00 1.311278894738e+00 1.320354125285e+00 1.329636665203e+00 1.339117501505e+00 1.348751982053e+00 1.358529261301e+00 1.368400843552e+00 1.378354259001e+00 1.388337758690e+00 1.398337560628e+00 1.408299393296e+00 1.418208574388e+00 1.428009168704e+00 1.437686094492e+00 1.447182719797e+00 1.456484135691e+00 1.465534060696e+00 1.474318378444e+00 1.482782251043e+00 1.490912992577e+00 1.498658307936e+00 1.506007564374e+00 1.512912071428e+00 1.519363821318e+00 1.525318707613e+00 1.530771831963e+00 1.535684524065e+00 1.540055356798e+00 1.543851778344e+00 1.547076039629e+00 1.549702182158e+00 1.551736159909e+00 1.553158846163e+00 1.553979728347e+00 1.554186520056e+00 1.553792011315e+00 1.552790829053e+00 1.551198818895e+00 1.549017142479e+00 1.546264098620e+00 1.542946915230e+00 1.539085800304e+00 1.534693524227e+00 1.529791652765e+00 1.524397907259e+00 1.518534655246e+00 1.512223922633e+00 1.505488333587e+00 1.498353538518e+00 1.490841901990e+00 1.482982008105e+00 1.474795491851e+00 1.466313191700e+00 1.457555604226e+00 1.448555174265e+00 1.439330923439e+00 1.429916302510e+00 1.420328600820e+00 1.410601734348e+00 1.400751084610e+00 1.390810559802e+00 1.380793538393e+00 1.370733519508e+00 1.360641858784e+00 1.350551317168e+00 1.340471275488e+00 1.330433497132e+00 1.320445494388e+00 1.310537838656e+00 1.300716327484e+00 1.291010204367e+00 1.281423742251e+00 1.271984771799e+00 1.262696256792e+00 1.253584572975e+00 1.244651605253e+00 1.235922266882e+00 1.227397599495e+00 1.219101072543e+00 1.211033116899e+00 1.203215795183e+00 1.195649149662e+00 1.188353883843e+00 1.181329857063e+00 1.174596465046e+00 1.168153568293e+00 1.162019302991e+00 1.156193689004e+00 1.150693641805e+00 1.145519469184e+00 1.140686889189e+00 1.136196593024e+00 1.132063103103e+00 1.128287553087e+00 1.124883244201e+00 1.121851771837e+00 1.119205157720e+00 1.116945435709e+00 1.115083253144e+00 1.113621016291e+00 1.112567868064e+00 1.111926487323e+00 1.111704368107e+00 1.111904382868e+00 1.112532290451e+00 1.113591038180e+00 1.115084361262e+00 1.117014967612e+00 1.119384232899e+00 1.122194321321e+00 1.125443919858e+00 1.129134339870e+00 1.133261254849e+00 1.137824816900e+00 1.142817380404e+00 1.148237649692e+00 1.154074391923e+00 1.160324609180e+00 1.166973268594e+00 1.174015463748e+00 1.181432219066e+00 1.189216572012e+00 1.197345542198e+00 1.205810027911e+00 1.214583068253e+00 1.223653405728e+00 1.232990211645e+00 1.242580121767e+00 1.252388640479e+00 1.262400409812e+00 1.272577555444e+00 1.282902901741e+00 1.293335571169e+00 1.303856810415e+00 1.314423202619e+00 1.325014723291e+00 1.335585970236e+00 1.346116024096e+00 1.356558142307e+00 1.366890958929e+00 1.377067124957e+00 1.387065347094e+00 1.396838485828e+00 1.406365904347e+00 1.415601556967e+00 1.424526098782e+00 1.433095509383e+00 1.441292402283e+00 1.449075731852e+00 1.456430739930e+00 1.463320287137e+00 1.469732883023e+00 1.475636166263e+00 1.481022484312e+00 1.485865020438e+00 1.490160418770e+00 1.493888019593e+00 1.497049064641e+00 1.499629455191e+00 1.501635118131e+00 1.503058642923e+00 1.503910437399e+00 1.504189528714e+00 1.503910193125e+00 1.503077216031e+00 1.501707957271e+00 1.499812364393e+00 1.497410279603e+00 1.494516251104e+00 1.491151986911e+00 1.487335994982e+00 1.483091191489e+00 1.478439339823e+00 1.473403892667e+00 1.468009133376e+00 1.462278398026e+00 1.456237758050e+00 1.449909828956e+00 1.443321773266e+00 1.436494956004e+00 1.429456993733e+00 1.422227562614e+00 1.414834173883e+00 1.407294477685e+00 1.399635408614e+00 1.391872357308e+00 1.384031302165e+00 1.376125240702e+00 1.368178905497e+00 1.360202858581e+00 1.352220380922e+00 1.344239635962e+00 1.336282322097e+00 1.328354306371e+00 1.320475637788e+00 1.312650039774e+00 1.304895897934e+00 1.297214981028e+00 1.289624038937e+00 1.282123097514e+00 1.274727329938e+00 1.267435241907e+00 1.260260511123e+00 1.253200346947e+00 1.246267027249e+00 1.239456681986e+00 1.232780292916e+00 1.226233114610e+00 1.219824939545e+00 1.213550333764e+00 1.207418006647e+00 1.201422002748e+00 1.195570051175e+00 1.189855820855e+00 1.184286158254e+00 1.178854481047e+00 1.173566844305e+00 1.168416517853e+00 1.163408849555e+00 1.158537044906e+00 1.153805821375e+00 1.149208385248e+00 1.144748892995e+00 1.140420600150e+00 1.136227164281e+00 1.132161923831e+00 1.128228092522e+00 1.124419112458e+00 1.120737801892e+00 1.117177716301e+00 1.113741320580e+00 1.110422284052e+00 1.107222754580e+00 1.104136508263e+00 1.101165407001e+00 1.098303320626e+00 1.095551851450e+00 1.092904945472e+00 1.090363967705e+00 1.087922919527e+00 1.085582947474e+00 1.083338085475e+00 1.081189277585e+00 1.079130566454e+00 1.077162707473e+00 1.075279728107e+00 1.073482207355e+00 1.071764134314e+00 1.070125922954e+00 1.068561502237e+00 1.067071132152e+00 1.065648661776e+00 1.064294208429e+00 1.063001524088e+00 1.061770595520e+00 1.060595063373e+00 1.059474797292e+00 1.058403315768e+00 1.057380386560e+00 1.056399398950e+00 1.055460036344e+00 1.054555555933e+00 1.053685577060e+00 1.052843226534e+00 1.052028083196e+00 1.051233150220e+00 1.050457993303e+00 1.049695504318e+00 1.048945267562e+00 1.048200082157e+00 1.047459587808e+00 1.046716516417e+00 1.045970605762e+00 1.045214553975e+00 1.044448246385e+00 1.043664389841e+00 1.042863074657e+00 1.042037069278e+00 1.041186735726e+00 1.040304968874e+00 1.039392480012e+00 1.038442369008e+00 1.037455786555e+00 1.036426131762e+00 1.035355099386e+00 1.034236499835e+00 1.033072693192e+00 1.031858033311e+00 1.030595685697e+00 1.029280702191e+00 1.027917214909e+00 1.026501152857e+00 1.025037799128e+00 1.023524165611e+00 1.021966895573e+00 1.020364317259e+00 1.018724668884e+00 1.017047856307e+00 1.015343972399e+00 1.013614787986e+00 1.011872533098e+00 1.010121156516e+00 1.008375347740e+00 1.006641697321e+00 1.004938482964e+00 1.003280060133e+00 1.001716478444e+00 1.000000000000e+00 1.000000000000e+00 1.000000000000e+00 1.000000000000e+00 
1.000000000000e+00 1.000081883119e+00 1.000328925375e+00 1.000740501916e+00 1.001318434052e+00 1.002062192255e+00 1.002973846157e+00 1.004053074254e+00 1.005302165281e+00 1.006720965739e+00 1.008311948802e+00 1.010075077137e+00 1.012012960882e+00 1.014125614111e+00 1.016415723702e+00 1.018883277691e+00 1.021530967011e+00 1.024358663913e+00 1.027368978771e+00 1.030561566726e+00 1.033938861980e+00 1.037500190883e+00 1.041247706356e+00 1.045180285784e+00 1.049299688434e+00 1.053604216724e+00 1.058095119693e+00 1.062769996520e+00 1.067629469260e+00 1.072670307829e+00 1.077892395318e+00 1.083291554057e+00 1.088866826838e+00 1.094612984055e+00 1.100528144079e+00 1.106605941820e+00 1.112843511291e+00 1.119233296191e+00 1.125771417339e+00 1.132449105970e+00 1.139261478237e+00 1.146198571822e+00 1.153254549049e+00 1.160418317095e+00 1.167683180507e+00 1.175037024771e+00 1.182472438138e+00 1.189976437632e+00 1.197541079185e+00 1.205152704345e+00 1.212803056880e+00 1.220478027606e+00 1.228169294886e+00 1.235862544317e+00 1.243549649956e+00 1.251216345197e+00 1.258854961181e+00 1.266451525179e+00 1.273999072442e+00 1.281484148936e+00 1.288900712785e+00 1.296236019338e+00 1.303485128197e+00 1.310636150445e+00 1.317685376797e+00 1.324621869404e+00 1.331443225690e+00 1.338139500505e+00 1.344709618413e+00 1.351144616156e+00 1.357444713309e+00 1.363601870052e+00 1.369617521938e+00 1.375484454020e+00 1.381205199801e+00 1.386773239867e+00 1.392192057804e+00 1.397455679803e+00 1.402568371346e+00 1.407524543885e+00 1.412329065442e+00 1.416976571466e+00 1.421472350213e+00 1.425811107335e+00 1.429998373099e+00 1.434028784082e+00 1.437907944141e+00 1.441630301700e+00 1.445201380084e+00 1.448615345047e+00 1.451877502954e+00 1.454981670173e+00 1.457932819867e+00 1.460724382308e+00 1.463360903179e+00 1.465835421290e+00 1.468151983679e+00 1.470303264218e+00 1.472292763865e+00 1.474112849696e+00 1.475766452964e+00 1.477245722625e+00 1.478553019833e+00 1.479680392581e+00 1.480629653409e+00 1.481392891680e+00 1.481971411995e+00 1.482357507203e+00 1.482552028341e+00 1.482547646042e+00 1.482344849831e+00 1.481936941771e+00 1.481324181456e+00 1.480500704479e+00 1.479466625076e+00 1.478217114810e+00 1.476752246395e+00 1.475068431375e+00 1.473165805860e+00 1.471042214074e+00 1.468697956610e+00 1.466132485560e+00 1.463346358269e+00 1.460340785620e+00 1.457116660852e+00 1.453677075020e+00 1.450023320029e+00 1.446160454714e+00 1.442090213675e+00 1.437819674493e+00 1.433351038553e+00 1.428693415094e+00 1.423849476406e+00 1.418830338310e+00 1.413639129237e+00 1.408288909981e+00 1.402783233572e+00 1.397137010319e+00 1.391354172454e+00 1.385451354148e+00 1.379432811113e+00 1.373316749894e+00 1.367107687478e+00 1.360825230240e+00 1.354474091670e+00 1.348075089267e+00 1.341633069438e+00 1.335169860665e+00 1.328690383257e+00 1.322217269470e+00 1.315755461929e+00 1.309328186183e+00 1.302940365217e+00 1.296615607243e+00 1.290358784785e+00 1.284193680297e+00 1.278125096902e+00 1.272176786673e+00 1.266353476278e+00 1.260678687390e+00 1.255157074367e+00 1.249811733149e+00 1.244647259755e+00 1.239686133143e+00 1.234932912765e+00 1.230409272209e+00 1.226119761279e+00 1.222085060818e+00 1.218309739701e+00 1.214813297210e+00 1.211600347696e+00 1.208689015458e+00 1.206083979363e+00 1.203801786667e+00 1.201847186228e+00 1.200234932598e+00 1.198969829444e+00 1.198064605116e+00 1.197524079977e+00 1.197358718797e+00 1.197573359004e+00 1.198176084359e+00 1.199171785200e+00 1.200565892579e+00 1.202363189306e+00 1.204566141224e+00 1.207179264367e+00 1.210201754392e+00 1.213637679620e+00 1.217482660183e+00 1.221740111283e+00 1.226401777680e+00 1.231470196573e+00 1.236932953926e+00 1.242791473577e+00 1.249028929934e+00 1.255645399780e+00 1.262619440646e+00 1.269949564863e+00 1.277609573649e+00 1.285596230148e+00 1.293878524842e+00 1.302451336731e+00 1.311278894738e+00 1.320354125285e+00 1.329636665203e+00 1.339117501505e+00 1.348751982053e+00 1.358529261301e+00 1.368400843552e+00 1.378354259001e+00 1.388337758690e+00 1.398337560628e+00 1.408299393296e+00 1.418208574388e+00 1.428009168704e+00 1.437686094492e+00 1.447182719797e+00 1.456484135691e+00 1.465534060696e+00 1.474318378444e+00 1.482782251043e+00 1.490912992577e+00 1.498658307936e+00 1.506007564374e+00 1.512912071428e+00 1.519363821318e+00 1.525318707613e+00 1.530771831963e+00 1.535684524065e+00 1.540055356798e+00 1.543851778344e+00 1.547076039629e+00 1.549702182158e+00 1.551736159909e+00 1.553158846163e+00 1.553979728347e+00 1.554186520056e+00 1.553792011315e+00 1.552790829053e+00 1.551198818895e+00 1.549017142479e+00 1.546264098620e+00 1.542946915230e+00 1.539085800304e+00 1.534693524227e+00 1.529791652765e+00 1.524397907259e+00 1.518534655246e+00 1.512223922633e+00 1.505488333587e+00 1.498353538518e+00 1.490841901990e+00 1.482982008105e+00 1.474795491851e+00 1.466313191700e+00 1.457555604226e+00 1.448555174265e+00 1.439330923439e+00 1.429916302510e+00 1.420328600820e+00 1.410601734348e+00 1.400751084610e+00 1.390810559802e+00 1.380793538393e+00 1.370733519508e+00 1.360641858784e+00 1.350551317168e+00 1.340471275488e+00 1.330433497132e+00 1.320445494388e+00 1.310537838656e+00 1.300716327484e+00 1.291010204367e+00 1.281423742251e+00 1.271984771799e+00 1.262696256792e+00 1.253584572975e+00 1.244651605253e+00 1.235922266882e+00 1.227397599495e+00 1.219101072543e+00 1.211033116899e+00 1.203215795183e+00 1.195649149662e+00 1.188353883843e+00 1.181329857063e+00 1.174596465046e+00 1.168153568293e+00 1.162019302991e+00 1.156193689004e+00 1.150693641805e+00 1.145519469184e+00 1.140686889189e+00 1.136196593024e+00 1.132063103103e+00 1.128287553087e+00 1.124883244201e+00 1.121851771837e+00 1.119205157720e+00 1.116945435709e+00 1.115083253144e+00 1.113621016291e+00 1.112567868064e+00 1.111926487323e+00 1.111704368107e+00 1.111904382868e+00 1.112532290451e+00 1.113591038180e+00 1.115084361262e+00 1.117014967612e+00 1.119384232899e+00 1.122194321321e+00 1.125443919858e+00 1.129134339870e+00 1.133261254849e+00 1.137824816900e+00 1.142817380404e+00 1.148237649692e+00 1.154074391923e+00 1.160324609180e+00 1.166973268594e+00 1.174015463748e+00 1.181432219066e+00 1.189216572012e+00 1.197345542198e+00 1.205810027911e+00 1.214583068253e+00 1.223653405728e+00 1.232990211645e+00 1.242580121767e+00 1.252388640479e+00 1.262400409812e+00 1.272577555444e+00 1.282902901741e+00 1.293335571169e+00 1.303856810415e+00 1.314423202619e+00 1.325014723291e+00 1.335585970236e+00 1.346116024096e+00 1.356558142307e+00 1.366890958929e+00 1.377067124957e+00 1.387065347094e+00 1.396838485828e+00 1.406365904347e+00 1.415601556967e+00 1.424526098782e+00 1.433095509383e+00 1.441292402283e+00 1.449075731852e+00 1.456430739930e+00 1.463320287137e+00 1.469732883023e+00 1.475636166263e+00 1.481022484312e+00 1.485865020438e+00 1.490160418770e+00 1.493888019593e+00 1.497049064641e+00 1.499629455191e+00 1.501635118131e+00 1.503058642923e+00 1.503910437399e+00 1.504189528714e+00 1.503910193125e+00 1.503077216031e+00 1.501707957271e+00 1.499812364393e+00 1.497410279603e+00 1.494516251104e+00 1.491151986911e+00 1.487335994982e+00 1.483091191489e+00 1.478439339823e+00 1.473403892667e+00 1.468009133376e+00 1.462278398026e+00 1.456237758050e+00 1.449909828956e+00 1.443321773266e+00 1.436494956004e+00 1.429456993733e+00 1.422227562614e+00 1.414834173883e+00 1.407294477685e+00 1.399635408614e+00 1.391872357308e+00 1.384031302165e+00 1.376125240702e+00 1.368178905497e+00 1.360202858581e+00 1.352220380922e+00 1.344239635962e+00 1.336282322097e+00 1.328354306371e+00 1.320475637788e+00 1.312650039774e+00 1.304895897934e+00 1.297214981028e+00 1.289624038937e+00 1.282123097514e+00 1.274727329938e+00 1.267435241907e+00 1.260260511123e+00 1.253200346947e+00 1.246267027249e+00 1.239456681986e+00 1.232780292916e+00 1.226233114610e+00 1.219824939545e+00 1.213550333764e+00 1.207418006647e+00 1.201422002748e+00 1.195570051175e+00 1.189855820855e+00 1.184286158254e+00 1.178854481047e+00 1.173566844305e+00 1.168416517853e+00 1.163408849555e+00 1.158537044906e+00 1.153805821375e+00 1.149208385248e+00 1.144748892995e+00 1.140420600150e+00 1.136227164281e+00 1.132161923831e+00 1.128228092522e+00 1.124419112458e+00 1.120737801892e+00 1.117177716301e+00 1.113741320580e+00 1.110422284052e+00 1.107222754580e+00 1.104136508263e+00 1.101165407001e+00 1.098303320626e+00 1.095551851450e+00 1.092904945472e+00 1.090363967705e+00 1.087922919527e+00 1.085582947474e+00 1.083338085475e+00 1.081189277585e+00 1.079130566454e+00 1.077162707473e+00 1.075279728107e+00 1.073482207355e+00 1.071764134314e+00 1.070125922954e+00 1.068561502237e+00 1.067071132152e+00 1.065648661776e+00 1.064294208429e+00 1.063001524088e+00 1.061770595520e+00 1.060595063373e+00 1.059474797292e+00 1.058403315768e+00 1.057380386560e+00 1.056399398950e+00 1.055460036344e+00 1.054555555933e+00 1.053685577060e+00 1.052843226534e+00 1.052028083196e+00 1.051233150220e+00 1.050457993303e+00 1.049695504318e+00 1.048945267562e+00 1.048200082157e+00 1.047459587808e+00 1.046716516417e+00 1.045970605762e+00 1.045214553975e+00 1.044448246385e+00 1.043664389841e+00 1.042863074657e+00 1.042037069278e+00 1.041186735726e+00 1.040304968874e+00 1.039392480012e+00 1.038442369008e+00 1.037455786555e+00 1.036426131762e+00 1.035355099386e+00 1.034236499835e+00 1.033072693192e+00 1.031858033311e+00 1.030595685697e+00 1.029280702191e+00 1.027917214909e+00 1.026501152857e+00 1.025037799128e+00 1.023524165611e+00 1.021966895573e+00 1.020364317259e+00 1.018724668884e+00 1.017047856307e+00 1.015343972399e+00 1.013614787986e+00 1.011872533098e+00 1.010121156516e+00 1.008375347740e+00 1.006641697321e+00 1.004938482964e+00 1.003280060133e+00 1.001716478444e+00 1.000000000000e+00 1.000000000000e+00 1.000000000000e+00 1.000000000000e+00 
1.000000000000e+00 1.000082299726e+00 1.000328612522e+00 1.000740610790e+00 1.001317665649e+00 1.002061729740e+00 1.002972385315e+00 1.004051820604e+00 1.005299811794e+00 1.006718755569e+00 1.008308575688e+00 1.010071835340e+00 1.012008546895e+00 1.014121385754e+00 1.016410381459e+00 1.018878254897e+00 1.021524968888e+00 1.024353210831e+00 1.027362780878e+00 1.030556242339e+00 1.033933125586e+00 1.037495768754e+00 1.041243315628e+00 1.045177769410e+00 1.049297763009e+00 1.053604848865e+00 1.058097020325e+00 1.062775260680e+00 1.067636794662e+00 1.072681919968e+00 1.077906968296e+00 1.083311442714e+00 1.088890668042e+00 1.094643257391e+00 1.100563432101e+00 1.106648840639e+00 1.112892528602e+00 1.119291132895e+00 1.125836482513e+00 1.132524190499e+00 1.139344866207e+00 1.146293126994e+00 1.153358402475e+00 1.160534387163e+00 1.167809416806e+00 1.175176382374e+00 1.182622657907e+00 1.190140495363e+00 1.197716482611e+00 1.205342437735e+00 1.213004374961e+00 1.220693916180e+00 1.228396741780e+00 1.236104536488e+00 1.243802901463e+00 1.251483851068e+00 1.259133162341e+00 1.266743439009e+00 1.274300874697e+00 1.281798900363e+00 1.289224338445e+00 1.296571649785e+00 1.303828457437e+00 1.310990408872e+00 1.318046050443e+00 1.324992319985e+00 1.331818755947e+00 1.338523634155e+00 1.345097499462e+00 1.351539958107e+00 1.357842524434e+00 1.364006076737e+00 1.370023017221e+00 1.375895394226e+00 1.381616380273e+00 1.387189056992e+00 1.392607223874e+00 1.397874833985e+00 1.402986155111e+00 1.407945834381e+00 1.412748443926e+00 1.417399140883e+00 1.421892641557e+00 1.426234430072e+00 1.430419218272e+00 1.434452641662e+00 1.438329276889e+00 1.442054747705e+00 1.445623387693e+00 1.449040662091e+00 1.452300580146e+00 1.455408321081e+00 1.458357517790e+00 1.461152957316e+00 1.463787875171e+00 1.466266582834e+00 1.468581929297e+00 1.470737690752e+00 1.472726372564e+00 1.474551179948e+00 1.476204348901e+00 1.477688501815e+00 1.478995709429e+00 1.480128022449e+00 1.481077477797e+00 1.481845586928e+00 1.482424508019e+00 1.482815264329e+00 1.483010309591e+00 1.483010248529e+00 1.482808033266e+00 1.482403962553e+00 1.481791719475e+00 1.480971403721e+00 1.479937636371e+00 1.478690419232e+00 1.477225518654e+00 1.475542945483e+00 1.473639811604e+00 1.471516242077e+00 1.469170880121e+00 1.466604063828e+00 1.463816132307e+00 1.460807724321e+00 1.457581012126e+00 1.454137007794e+00 1.450479821849e+00 1.446610894409e+00 1.442536343624e+00 1.438258072642e+00 1.433784238701e+00 1.429117222577e+00 1.424267213489e+00 1.419237064607e+00 1.414038952284e+00 1.408676178647e+00 1.403162826744e+00 1.397502608618e+00 1.391711401261e+00 1.385793275291e+00 1.379765760698e+00 1.373633226815e+00 1.367414692190e+00 1.361114760451e+00 1.354753755705e+00 1.348336450823e+00 1.341884278818e+00 1.335402119761e+00 1.328912309882e+00 1.322419780579e+00 1.315947560730e+00 1.309500585928e+00 1.303102365723e+00 1.296757803387e+00 1.290490678536e+00 1.284305837339e+00 1.278227122207e+00 1.272259309541e+00 1.266426101789e+00 1.260732204685e+00 1.255200982906e+00 1.249837081328e+00 1.244663333721e+00 1.239684342926e+00 1.234922222412e+00 1.230381558474e+00 1.226083557110e+00 1.222032817235e+00 1.218249450288e+00 1.214738096977e+00 1.211517584439e+00 1.208592619853e+00 1.205980550213e+00 1.203686163958e+00 1.201725121829e+00 1.200102292270e+00 1.198831429428e+00 1.197917460134e+00 1.197372000480e+00 1.197200007264e+00 1.197410756352e+00 1.198009251108e+00 1.199002246047e+00 1.200394720660e+00 1.202190617020e+00 1.204394743052e+00 1.207007923159e+00 1.210034622095e+00 1.213472239257e+00 1.217324699181e+00 1.221585670431e+00 1.226258317224e+00 1.231332281668e+00 1.236809731562e+00 1.242676009797e+00 1.248932046314e+00 1.255558650570e+00 1.262555281479e+00 1.269898037288e+00 1.277584696814e+00 1.285586544935e+00 1.293899512574e+00 1.302490063993e+00 1.311352173126e+00 1.320447589407e+00 1.329768295820e+00 1.339271561304e+00 1.348947433164e+00 1.358749074167e+00 1.368664750825e+00 1.378644040007e+00 1.388673687370e+00 1.398700349378e+00 1.408709615228e+00 1.418646023409e+00 1.428494468198e+00 1.438198293164e+00 1.447742242046e+00 1.457069482936e+00 1.466165215203e+00 1.474973515738e+00 1.483480680455e+00 1.491632806432e+00 1.499417929926e+00 1.506785264443e+00 1.513725198117e+00 1.520191096985e+00 1.526176243629e+00 1.531639086917e+00 1.536576240973e+00 1.540952017683e+00 1.544766659871e+00 1.547990931795e+00 1.550628832145e+00 1.552657942558e+00 1.554085955158e+00 1.554897396748e+00 1.555103422937e+00 1.554695480969e+00 1.553687930074e+00 1.552078958188e+00 1.549885658305e+00 1.547112548441e+00 1.543778920462e+00 1.539895127929e+00 1.535482111914e+00 1.530555494898e+00 1.525137308125e+00 1.519247813129e+00 1.512909574584e+00 1.506146818685e+00 1.498982106721e+00 1.491442933519e+00 1.483551358392e+00 1.475337450350e+00 1.466822322894e+00 1.458037947808e+00 1.449004116969e+00 1.439754074838e+00 1.430305993004e+00 1.420693814089e+00 1.410933872560e+00 1.401060300272e+00 1.391087459971e+00 1.381049235207e+00 1.370957961262e+00 1.360846909225e+00 1.350726403499e+00 1.340628810666e+00 1.330562524322e+00 1.320558782696e+00 1.310624181758e+00 1.300788669853e+00 1.291057220448e+00 1.281458385565e+00 1.271995721961e+00 1.262696325933e+00 1.253562563136e+00 1.244620053374e+00 1.235870206559e+00 1.227337175455e+00 1.219021650336e+00 1.210946348410e+00 1.203111469341e+00 1.195538340489e+00 1.188226886206e+00 1.181197096586e+00 1.174448816688e+00 1.168000751911e+00 1.161852840130e+00 1.156022548132e+00 1.150510050889e+00 1.145331610023e+00 1.140487750582e+00 1.135993543890e+00 1.131849943452e+00 1.128070820787e+00 1.124657598402e+00 1.121622908566e+00 1.118968642503e+00 1.116706119255e+00 1.114837656070e+00 1.113373148858e+00 1.112315259488e+00 1.111672323532e+00 1.111447247254e+00 1.111646672855e+00 1.112273651565e+00 1.113332946753e+00 1.114827523090e+00 1.116759950440e+00 1.119132805041e+00 1.121946129848e+00 1.125201800046e+00 1.128896997687e+00 1.133032581718e+00 1.137602551279e+00 1.142606445013e+00 1.148034786891e+00 1.153885518876e+00 1.160145446153e+00 1.166810681130e+00 1.173864132027e+00 1.181299904852e+00 1.189096910737e+00 1.197247136336e+00 1.205725481192e+00 1.214521766604e+00 1.223606954534e+00 1.232968721264e+00 1.242574253331e+00 1.252409166222e+00 1.262437119697e+00 1.272641814324e+00 1.282983717031e+00 1.293444820518e+00 1.303982818442e+00 1.314578265719e+00 1.325186589680e+00 1.335787244153e+00 1.346333986574e+00 1.356805576766e+00 1.367154788673e+00 1.377360167340e+00 1.387374276243e+00 1.397175994476e+00 1.406718525405e+00 1.415981691866e+00 1.424920248068e+00 1.433515614982e+00 1.441725044398e+00 1.449532230653e+00 1.456897873061e+00 1.463808604472e+00 1.470229485723e+00 1.476150706641e+00 1.481542523697e+00 1.486399214822e+00 1.490696939177e+00 1.494434462751e+00 1.497594376845e+00 1.500180155030e+00 1.502181113532e+00 1.503605407730e+00 1.504449049747e+00 1.504724496902e+00 1.504433950316e+00 1.503593313025e+00 1.502210211137e+00 1.500303333511e+00 1.497885216345e+00 1.494976745707e+00 1.491594764322e+00 1.487761712156e+00 1.483498054220e+00 1.478827109332e+00 1.473772231008e+00 1.468356943718e+00 1.462606742729e+00 1.456544720296e+00 1.450197788122e+00 1.443588032344e+00 1.436743106005e+00 1.429683600645e+00 1.422437307268e+00 1.415022933270e+00 1.407467889825e+00 1.399788715286e+00 1.392012015453e+00 1.384151978251e+00 1.376234071270e+00 1.368270047415e+00 1.360283991454e+00 1.352285222676e+00 1.344296278601e+00 1.336324118874e+00 1.328389639266e+00 1.320497571607e+00 1.312667133988e+00 1.304901005292e+00 1.297216737075e+00 1.289615159093e+00 1.282112203681e+00 1.274707071560e+00 1.267414149477e+00 1.260231234582e+00 1.253171259470e+00 1.246230839629e+00 1.239421555690e+00 1.232739052905e+00 1.226193667244e+00 1.219780269608e+00 1.213508059411e+00 1.207371310193e+00 1.201378190546e+00 1.195522532814e+00 1.189811575918e+00 1.184238845615e+00 1.178810746254e+00 1.173520610233e+00 1.168374095504e+00 1.163364433816e+00 1.158496617518e+00 1.153763851244e+00 1.149170535005e+00 1.144709902331e+00 1.140385826697e+00 1.136191610835e+00 1.132130660236e+00 1.128196373335e+00 1.124391739265e+00 1.120710266753e+00 1.117154573669e+00 1.113718283544e+00 1.110403682013e+00 1.107204503597e+00 1.104122735169e+00 1.101152211733e+00 1.098294649867e+00 1.095543969363e+00 1.092901640572e+00 1.090361648556e+00 1.087925237714e+00 1.085586436287e+00 1.083346279851e+00 1.081198816257e+00 1.079144886883e+00 1.077178535127e+00 1.075300420950e+00 1.073504559588e+00 1.071791441149e+00 1.070155030104e+00 1.068595657679e+00 1.067107216724e+00 1.065689890548e+00 1.064337481814e+00 1.063050037435e+00 1.061821254101e+00 1.060651054920e+00 1.059533018020e+00 1.058466956867e+00 1.057446322027e+00 1.056470833533e+00 1.055533809346e+00 1.054634894796e+00 1.053767274555e+00 1.052930540973e+00 1.052117749532e+00 1.051328464827e+00 1.050555622523e+00 1.049798788745e+00 1.049050794563e+00 1.048311241595e+00 1.047572878093e+00 1.046835380538e+00 1.046091443527e+00 1.045340864056e+00 1.044576320654e+00 1.043797783787e+00 1.042997963151e+00 1.042177064192e+00 1.041327886103e+00 1.040450940789e+00 1.039539188037e+00 1.038593529305e+00 1.037607170686e+00 1.036581499739e+00 1.035510071244e+00 1.034394870886e+00 1.033229923398e+00 1.032017942286e+00 1.030753564731e+00 1.029440381727e+00 1.028073808983e+00 1.026658486889e+00 1.025190801535e+00 1.023676638876e+00 1.022113574733e+00 1.020508962437e+00 1.018861815212e+00 1.017181201511e+00 1.015467847350e+00 1.013732808630e+00 1.011978825157e+00 1.010219237208e+00 1.008459142409e+00 1.006714614693e+00 1.004994273927e+00 1.003322096061e+00 1.001738774662e+00 1.000000000000e+00 1.000000000000e+00 1.000000000000e+00 1.000000000000e+00 