# vtk DataFile Version 3.0
Vortex Output
ASCII
DATASET STRUCTURED_POINTS
FIELD FieldData 2
TIME 1 1 double
0.002500
CYCLE 1 1 int
1
DIMENSIONS 514 130 1
ORIGIN 0 0 0
SPACING 1 1 1
POINT_DATA 66820
SCALARS u double 1
LOOKUP_TABLE default
9.996129448376e-01 9.996129448376e-01 1.000194048761e+00 9.993919634769e-01 9.999903048249e-01 9.991639495767e-01 9.997969257665e-01 9.989296624774e-01 9.996142302629e-01 9.986906156011e-01 9.994430883828e-01 9.984492854206e-01 9.992851009877e-01 9.982092744891e-01 9.991427271250e-01 9.979754144242e-01 9.990193481073e-01 9.977537952588e-01 9.989192580356e-01 9.975517088991e-01 9.988475722983e-01 9.973774968250e-01 9.988100483248e-01 9.972402958574e-01 9.988128167516e-01 9.971496809218e-01 9.988620263029e-01 9.971152102847e-01 9.989634120317e-01 9.971458865433e-01 9.991218039089e-01 9.972495553557e-01 9.993406006530e-01 9.974322728814e-01 9.996212414927e-01 9.976976813400e-01 9.999627153869e-01 9.980464389470e-01 1.000361152044e+00 9.984757546073e-01 1.000809540793e+00 9.989790780073e-01 1.001297620963e+00 9.995459912021e-01 1.001811980150e+00 1.000162337879e+00 1.002336384391e+00 1.000810611206e+00 1.002852347076e+00 1.001470601311e+00 1.003339922691e+00 1.002120280441e+00 1.003778688884e+00 1.002736880116e+00 1.004148858526e+00 1.003298092635e+00 1.004432445066e+00 1.003783312247e+00 1.004614392320e+00 1.004174821526e+00 1.004683576020e+00 1.004458827982e+00 1.004633590234e+00 1.004626265326e+00 1.004463247112e+00 1.004673292512e+00 1.004176742026e+00 1.004601449928e+00 1.003783465489e+00 1.004417462779e+00 1.003297475038e+00 1.004132713367e+00 1.002736670591e+00 1.003762432875e+00 1.002121742380e+00 1.003324685989e+00 1.001474978258e+00 1.002839236047e+00 1.000819025500e+00 1.002326383004e+00 1.000175700528e+00 1.001805861651e+00 9.995649293152e-01 1.001295874517e+00 9.990038834587e-01 1.000812315045e+00 9.985063547285e-01 1.000368214624e+00 9.980823872106e-01 9.999734248488e-01 9.977381636480e-01 9.996345260687e-01 9.974761233832e-01 9.993549369868e-01 9.972952748331e-01 9.991351884533e-01 9.971916563284e-01 9.989733181989e-01 9.971588953305e-01 9.988653415717e-01 9.971888169131e-01 9.988057556735e-01 9.972720569773e-01 9.987880396048e-01 9.973986428530e-01 9.988051207305e-01 9.975585125932e-01 9.988497849631e-01 9.977419533838e-01 9.989150171498e-01 9.979399482509e-01 9.989942650891e-01 9.981444280414e-01 9.990816270242e-01 9.983484320747e-01 9.991719673844e-01 9.985461856587e-01 9.992609688371e-01 9.987331055356e-01 9.993451298266e-01 9.989057441402e-01 9.994217126933e-01 9.990616728662e-01 9.994886150181e-01 9.991992124988e-01 9.995438048156e-01 9.993157060555e-01 9.995785492053e-01 9.995516474354e-01 9.997997824643e-01 9.996754337720e-01 9.998483437346e-01 9.997433901354e-01 9.998806984741e-01 9.997976363899e-01 9.999067697206e-01 9.998420236519e-01 9.999279599257e-01 9.998780596850e-01 9.999450089806e-01 9.999069704377e-01 9.999585478238e-01 9.999298716966e-01 9.999691520191e-01 9.999477782209e-01 9.999773420804e-01 9.999615960350e-01 9.999835787035e-01 9.999721173561e-01 9.999882603878e-01 9.999800208423e-01 9.999917242907e-01 9.999858765779e-01 9.999942497410e-01 9.999901545197e-01 9.999960635652e-01 9.999932351032e-01 9.999973464338e-01 9.999954208807e-01 9.999982395725e-01 9.999969482994e-01 9.999988513512e-01 9.999979989682e-01 9.999992634156e-01 9.999987099767e-01 9.999995361576e-01 9.999991830155e-01 9.999997134282e-01 9.999994921909e-01 9.999998264744e-01 9.999996905398e-01 9.999998971382e-01 9.999998153219e-01 9.999999403884e-01 9.999998922165e-01 9.999999662761e-01 9.999999385736e-01 9.999999814081e-01 9.999999658757e-01 9.999999900316e-01 9.999999815581e-01 9.999999948140e-01 9.999999903270e-01 9.999999973892e-01 9.999999950894e-01 9.999999987322e-01 9.999999975949e-01 9.999999994084e-01 9.999999988680e-01 9.999999997359e-01 9.999999994904e-01 9.999999998879e-01 9.999999997819e-01 9.999999999550e-01 9.999999999118e-01 9.999999999831e-01 9.999999999667e-01 9.999999999941e-01 9.999999999883e-01 9.999999999981e-01 9.999999999963e-01 9.999999999995e-01 9.999999999989e-01 9.999999999999e-01 9.999999999997e-01 1.000000000000e+00 9.999999999999e-01 1.000000000000e+00 1.000000000000e+00 1.000000000000e+00 1.000000000000e+00 1.000000000000e+00 1.000000000000e+00 1.000000000000e+00 1.000000000000e+00 1.000000000000e+00 1.000000000000e+00 1.000000000000e+00 1.000000000000e+00 1.000000000000e+00 1.000000000000e+00 1.000000000000e+00 1.000000000000e+00 1.000000000000e+00 1.000000000000e+00 1.000000000000e+00 1.000000000000e+00 1.000000000000e+00 1.000000000000e+00 1.000000000000e+00 1.000000000000e+00 1.000000000000e+00 1.000000000000e+00 1.000000000000e+00 1.000000000000e+00 1.000000000000e+00 1.000000000000e+00 1.000000000000e+00 1.000000000000e+00 1.000000000000e+00 1.000000000000e+00 1.000000000000e+00 1.000000000000e+00 1.000000000000e+00 1.000000000000e+00 1.000000000000e+00 1.000000000000e+00 1.000000000000e+00 1.000000000000e+00 1.000000000000e+00 1.000000000000e+00 1.000000000000e+00 1.000000000000e+00 1.000000000000e+00 1.000000000000e+00 1.000000000000e+00 1.000000000000e+00 1.000000000000e+00 1.000000000000e+00 1.000000000000e+00 1.000000000000e+00 1.000000000000e+00 1.000000000000e+00 1.000000000000e+00 1.000000000000e+00 1.000000000000e+00 1.000000000000e+00 1.000000000000e+00 1.000000000000e+00 1.000000000000e+00 1.000000000000e+00 1.000000000000e+00 1.000000000000e+00 1.000000000000e+00 1.000000000000e+00 1.000000000000e+00 1.000000000000e+00 1.000000000000e+00 1.000000000000e+00 1.000000000000e+00 1.000000000000e+00 1.000000000000e+00 1.000000000000e+00 1.000000000000e+00 1.000000000000e+00 1.000000000000e+00 1.000000000000e+00 1.000000000000e+00 1.000000000000e+00 1.000000000000e+00 1.000000000000e+00 1.000000000000e+00 1.000000000000e+00 1.000000000000e+00 1.000000000000e+00 1.000000000000e+00 1.000000000000e+00 1.000000000000e+00 1.000000000000e+00 1.000000000000e+00 1.000000000000e+00 1.000000000000e+00 1.000000000000e+00 1.000000000000e+00 1.000000000000e+00 1.000000000000e+00 1.000000000000e+00 1.000000000000e+00 1.000000000000e+00 1.000000000000e+00 1.000000000000e+00 1.000000000000e+00 1.000000000000e+00 1.000000000000e+00 1.000000000000e+00 1.000000000000e+00 1.000000000000e+00 1.000000000000e+00 1.000000000000e+00 1.000000000000e+00 1.000000000000e+00 1.000000000000e+00 1.000000000000e+00 1.000000000000e+00 1.000000000000e+00 1.000000000000e+00 1.000000000000e+00 1.000000000000e+00 1.000000000000e+00 1.000000000000e+00 1.000000000000e+00 1.000000000000e+00 1.000000000000e+00 1.000000000000e+00 1.000000000000e+00 1.000000000000e+00 1.000000000000e+00 1.000000000000e+00 1.000000000000e+00 1.000000000000e+00 1.000000000000e+00 1.000000000000e+00 1.000000000000e+00 1.000000000000e+00 1.000000000000e+00 1.000000000000e+00 1.000000000000e+00 1.000000000000e+00 1.000000000000e+00 1.000000000000e+00 1.000000000000e+00 1.000000000000e+00 1.000000000000e+00 1.000000000000e+00 1.000000000000e+00 1.000000000000e+00 1.000000000000e+00 1.000000000000e+00 1.000000000000e+00 1.000000000000e+00 1.000000000000e+00 1.000000000000e+00 1.000000000000e+00 1.000000000000e+00 1.000000000000e+00 1.000000000000e+00 1.000000000000e+00 1.000000000000e+00 1.000000000000e+00 1.000000000000e+00 1.000000000000e+00 1.000000000000e+00 1.000000000000e+00 1.000000000000e+00 1.000000000000e+00 1.000000000000e+00 1.000000000000e+00 1.000000000000e+00 1.000000000000e+00 1.000000000000e+00 1.000000000000e+00 1.000000000000e+00 1.000000000000e+00 1.000000000000e+00 1.000000000000e+00 1.000000000000e+00 1.000000000000e+00 1.000000000000e+00 1.000000000000e+00 1.000000000000e+00 1.000000000000e+00 1.000000000000e+00 1.000000000000e+00 1.000000000000e+00 1.000000000000e+00 1.000000000000e+00 1.000000000000e+00 1.000000000000e+00 1.000000000000e+00 1.000000000000e+00 1.000000000000e+00 1.000000000000e+00 1.000000000000e+00 1.000000000000e+00 1.000000000000e+00 1.000000000000e+00 1.000000000000e+00 1.000000000000e+00 1.000000000000e+00 1.000000000000e+00 1.000000000000e+00 1.000000000000e+00 1.000000000000e+00 1.000000000000e+00 1.000000000000e+00 1.000000000000e+00 1.000000000000e+00 1.000000000000e+00 1.000000000000e+00 1.000000000000e+00 1.000000000000e+00 1.000000000000e+00 1.000000000000e+00 1.000000000000e+00 1.000000000000e+00 1.000000000000e+00 1.000000000000e+00 1.000000000000e+00 1.000000000000e+00 1.000000000000e+00 1.000000000000e+00 1.000000000000e+00 1.000000000000e+00 1.000000000000e+00 1.000000000000e+00 1.000000000000e+00 1.000000000000e+00 1.000000000000e+00 1.000000000000e+00 1.000000000000e+00 1.000000000000e+00 1.000000000000e+00 1.000000000000e+00 1.000000000000e+00 1.000000000000e+00 1.000000000000e+00 1.000000000000e+00 1.000000000000e+00 1.000000000000e+00 1.000000000000e+00 1.000000000000e+00 1.000000000000e+00 1.000000000000e+00 1.000000000000e+00 1.000000000000e+00 1.000000000000e+00 1.000000000000e+00 1.000000000000e+00 1.000000000000e+00 1.000000000000e+00 1.000000000000e+00 1.000000000000e+00 1.000000000000e+00 1.000000000000e+00 1.000000000000e+00 1.000000000000e+00 1.000000000000e+00 1.000000000000e+00 1.000000000000e+00 1.000000000000e+00 1.000000000000e+00 1.000000000000e+00 1.000000000000e+00 1.000000000000e+00 1.000000000000e+00 1.000000000000e+00 1.000000000000e+00 1.000000000000e+00 1.000000000000e+00 1.000000000000e+00 1.000000000000e+00 1.000000000000e+00 1.000000000000e+00 1.000000000000e+00 1.000000000000e+00 1.000000000000e+00 1.000000000000e+00 1.000000000000e+00 1.000000000000e+00 1.000000000000e+00 1.000000000000e+00 1.000000000000e+00 1.000000000000e+00 1.000000000000e+00 1.000000000000e+00 1.000000000000e+00 1.000000000000e+00 1.000000000000e+00 1.000000000000e+00 1.000000000000e+00 1.000000000000e+00 1.000000000000e+00 1.000000000000e+00 1.000000000000e+00 1.000000000000e+00 1.000000000000e+00 1.000000000000e+00 1.000000000000e+00 1.000000000000e+00 1.000000000000e+00 1.000000000000e+00 1.000000000000e+00 1.000000000000e+00 1.000000000000e+00 
1.000000000000e+00 9.996129448376e-01 1.000194048761e+00 9.993919634769e-01 9.999903048249e-01 9.991639495767e-01 9.997969257665e-01 9.989296624774e-01 9.996142302629e-01 9.986906156011e-01 9.994430883828e-01 9.984492854206e-01 9.992851009877e-01 9.982092744891e-01 9.991427271250e-01 9.979754144242e-01 9.990193481073e-01 9.977537952588e-01 9.989192580356e-01 9.975517088991e-01 9.988475722983e-01 9.973774968250e-01 9.988100483248e-01 9.972402958574e-01 9.988128167516e-01 9.971496809218e-01 9.988620263029e-01 9.971152102847e-01 9.989634120317e-01 9.971458865433e-01 9.991218039089e-01 9.972495553557e-01 9.993406006530e-01 9.974322728814e-01 9.996212414927e-01 9.976976813400e-01 9.999627153869e-01 9.980464389470e-01 1.000361152044e+00 9.984757546073e-01 1.000809540793e+00 9.989790780073e-01 1.001297620963e+00 9.995459912021e-01 1.001811980150e+00 1.000162337879e+00 1.002336384391e+00 1.000810611206e+00 1.002852347076e+00 1.001470601311e+00 1.003339922691e+00 1.002120280441e+00 1.003778688884e+00 1.002736880116e+00 1.004148858526e+00 1.003298092635e+00 1.004432445066e+00 1.003783312247e+00 1.004614392320e+00 1.004174821526e+00 1.004683576020e+00 1.004458827982e+00 1.004633590234e+00 1.004626265326e+00 1.004463247112e+00 1.004673292512e+00 1.004176742026e+00 1.004601449928e+00 1.003783465489e+00 1.004417462779e+00 1.003297475038e+00 1.004132713367e+00 1.002736670591e+00 1.003762432875e+00 1.002121742380e+00 1.003324685989e+00 1.001474978258e+00 1.002839236047e+00 1.000819025500e+00 1.002326383004e+00 1.000175700528e+00 1.001805861651e+00 9.995649293152e-01 1.001295874517e+00 9.990038834587e-01 1.000812315045e+00 9.985063547285e-01 1.000368214624e+00 9.980823872106e-01 9.999734248488e-01 9.977381636480e-01 9.996345260687e-01 9.974761233832e-01 9.993549369868e-01 9.972952748331e-01 9.991351884533e-01 9.971916563284e-01 9.989733181989e-01 9.971588953305e-01 9.988653415717e-01 9.971888169131e-01 9.988057556735e-01 9.972720569773e-01 9.987880396048e-01 9.973986428530e-01 9.988051207305e-01 9.975585125932e-01 9.988497849631e-01 9.977419533838e-01 9.989150171498e-01 9.979399482509e-01 9.989942650891e-01 9.981444280414e-01 9.990816270242e-01 9.983484320747e-01 9.991719673844e-01 9.985461856587e-01 9.992609688371e-01 9.987331055356e-01 9.993451298266e-01 9.989057441402e-01 9.994217126933e-01 9.990616728662e-01 9.994886150181e-01 9.991992124988e-01 9.995438048156e-01 9.993157060555e-01 9.995785492053e-01 9.995516474354e-01 9.997997824643e-01 9.996754337720e-01 9.998483437346e-01 9.997433901354e-01 9.998806984741e-01 9.997976363899e-01 9.999067697206e-01 9.998420236519e-01 9.999279599257e-01 9.998780596850e-01 9.999450089806e-01 9.999069704377e-01 9.999585478238e-01 9.999298716966e-01 9.999691520191e-01 9.999477782209e-01 9.999773420804e-01 9.999615960350e-01 9.999835787035e-01 9.999721173561e-01 9.999882603878e-01 9.999800208423e-01 9.999917242907e-01 9.999858765779e-01 9.999942497410e-01 9.999901545197e-01 9.999960635652e-01 9.999932351032e-01 9.999973464338e-01 9.999954208807e-01 9.999982395725e-01 9.999969482994e-01 9.999988513512e-01 9.999979989682e-01 9.999992634156e-01 9.999987099767e-01 9.999995361576e-01 9.999991830155e-01 9.999997134282e-01 9.999994921909e-01 9.999998264744e-01 9.999996905398e-01 9.999998971382e-01 9.999998153219e-01 9.999999403884e-01 9.999998922165e-01 9.999999662761e-01 9.999999385736e-01 9.999999814081e-01 9.999999658757e-01 9.999999900316e-01 9.999999815581e-01 9.999999948140e-01 9.999999903270e-01 9.999999973892e-01 9.999999950894e-01 9.999999987322e-01 9.999999975949e-01 9.999999994084e-01 9.999999988680e-01 9.999999997359e-01 9.999999994904e-01 9.999999998879e-01 9.999999997819e-01 9.999999999550e-01 9.999999999118e-01 9.999999999831e-01 9.999999999667e-01 9.999999999941e-01 9.999999999883e-01 9.999999999981e-01 9.999999999963e-01 9.999999999995e-01 9.999999999989e-01 9.999999999999e-01 9.999999999997e-01 1.000000000000e+00 9.999999999999e-01 1.000000000000e+00 1.000000000000e+00 1.000000000000e+00 1.000000000000e+00 1.000000000000e+00 1.000000000000e+00 1.000000000000e+00 1.000000000000e+00 1.000000000000e+00 1.000000000000e+00 1.000000000000e+00 1.000000000000e+00 1.000000000000e+00 1.000000000000e+00 1.000000000000e+00 1.000000000000e+00 1.000000000000e+00 1.000000000000e+00 1.000000000000e+00 1.000000000000e+00 1.000000000000e+00 1.000000000000e+00 1.000000000000e+00 1.000000000000e+00 1.000000000000e+00 1.000000000000e+00 1.000000000000e+00 1.000000000000e+00 1.000000000000e+00 1.000000000000e+00 1.000000000000e+00 1.000000000000e+00 1.000000000000e+00 1.000000000000e+00 1.000000000000e+00 1.000000000000e+00 1.000000000000e+00 1.000000000000e+00 1.000000000000e+00 1.000000000000e+00 1.000000000000e+00 1.000000000000e+00 1.000000000000e+00 1.000000000000e+00 1.000000000000e+00 1.000000000000e+00 1.000000000000e+00 1.000000000000e+00 1.000000000000e+00 1.000000000000e+00 1.000000000000e+00 1.000000000000e+00 1.000000000000e+00 1.000000000000e+00 1.000000000000e+00 1.000000000000e+00 1.000000000000e+00 1.000000000000e+00 1.000000000000e+00 1.000000000000e+00 1.000000000000e+00 1.000000000000e+00 1.000000000000e+00 1.000000000000e+00 1.000000000000e+00 1.000000000000e+00 1.000000000000e+00 1.000000000000e+00 1.000000000000e+00 1.000000000000e+00 1.000000000000e+00 1.000000000000e+00 1.000000000000e+00 1.000000000000e+00 1.000000000000e+00 1.000000000000e+00 1.000000000000e+00 1.000000000000e+00 1.000000000000e+00 1.000000000000e+00 1.000000000000e+00 1.000000000000e+00 1.000000000000e+00 1.000000000000e+00 1.000000000000e+00 1.000000000000e+00 1.000000000000e+00 1.000000000000e+00 1.000000000000e+00 1.000000000000e+00 1.000000000000e+00 1.000000000000e+00 1.000000000000e+00 1.000000000000e+00 1.000000000000e+00 1.000000000000e+00 1.000000000000e+00 1.000000000000e+00 1.000000000000e+00 1.000000000000e+00 1.000000000000e+00 1.000000000000e+00 1.000000000000e+00 1.000000000000e+00 1.000000000000e+00 1.000000000000e+00 1.000000000000e+00 1.000000000000e+00 1.000000000000e+00 1.000000000000e+00 1.000000000000e+00 1.000000000000e+00 1.000000000000e+00 1.000000000000e+00 1.000000000000e+00 1.000000000000e+00 1.000000000000e+00 1.000000000000e+00 1.000000000000e+00 1.000000000000e+00 1.000000000000e+00 1.000000000000e+00 1.000000000000e+00 1.000000000000e+00 1.000000000000e+00 1.000000000000e+00 1.000000000000e+00 1.000000000000e+00 1.000000000000e+00 1.000000000000e+00 1.000000000000e+00 1.000000000000e+00 1.000000000000e+00 1.000000000000e+00 1.000000000000e+00 1.000000000000e+00 1.000000000000e+00 1.000000000000e+00 1.000000000000e+00 1.000000000000e+00 1.000000000000e+00 1.000000000000e+00 1.000000000000e+00 1.000000000000e+00 1.000000000000e+00 1.000000000000e+00 1.000000000000e+00 1.000000000000e+00 1.000000000000e+00 1.000000000000e+00 1.000000000000e+00 1.000000000000e+00 1.000000000000e+00 1.000000000000e+00 1.000000000000e+00 1.000000000000e+00 1.000000000000e+00 1.000000000000e+00 1.000000000000e+00 1.000000000000e+00 1.000000000000e+00 1.000000000000e+00 1.000000000000e+00 1.000000000000e+00 1.000000000000e+00 1.000000000000e+00 1.000000000000e+00 1.000000000000e+00 1.000000000000e+00 1.000000000000e+00 1.000000000000e+00 1.000000000000e+00 1.000000000000e+00 1.000000000000e+00 1.000000000000e+00 1.000000000000e+00 1.000000000000e+00 1.000000000000e+00 1.000000000000e+00 1.000000000000e+00 1.000000000000e+00 1.000000000000e+00 1.000000000000e+00 1.000000000000e+00 1.000000000000e+00 1.000000000000e+00 1.000000000000e+00 1.000000000000e+00 1.000000000000e+00 1.000000000000e+00 1.000000000000e+00 1.000000000000e+00 1.000000000000e+00 1.000000000000e+00 1.000000000000e+00 1.000000000000e+00 1.000000000000e+00 1.000000000000e+00 1.000000000000e+00 1.000000000000e+00 1.000000000000e+00 1.000000000000e+00 1.000000000000e+00 1.000000000000e+00 1.000000000000e+00 1.000000000000e+00 1.000000000000e+00 1.000000000000e+00 1.000000000000e+00 1.000000000000e+00 1.000000000000e+00 1.000000000000e+00 1.000000000000e+00 1.000000000000e+00 1.000000000000e+00 1.000000000000e+00 1.000000000000e+00 1.000000000000e+00 1.000000000000e+00 1.000000000000e+00 1.000000000000e+00 1.000000000000e+00 1.000000000000e+00 1.000000000000e+00 1.000000000000e+00 1.000000000000e+00 1.000000000000e+00 1.000000000000e+00 1.000000000000e+00 1.000000000000e+00 1.000000000000e+00 1.000000000000e+00 1.000000000000e+00 1.000000000000e+00 1.000000000000e+00 1.000000000000e+00 1.000000000000e+00 1.000000000000e+00 1.000000000000e+00 1.000000000000e+00 1.000000000000e+00 1.000000000000e+00 1.000000000000e+00 1.000000000000e+00 1.000000000000e+00 1.000000000000e+00 1.000000000000e+00 1.000000000000e+00 1.000000000000e+00 1.000000000000e+00 1.000000000000e+00 1.000000000000e+00 1.000000000000e+00 1.000000000000e+00 1.000000000000e+00 1.000000000000e+00 1.000000000000e+00 1.000000000000e+00 1.000000000000e+00 1.000000000000e+00 1.000000000000e+00 1.000000000000e+00 1.000000000000e+00 1.000000000000e+00 1.000000000000e+00 1.000000000000e+00 1.000000000000e+00 1.000000000000e+00 1.000000000000e+00 1.000000000000e+00 1.000000000000e+00 1.000000000000e+00 1.000000000000e+00 1.000000000000e+00 1.000000000000e+00 1.000000000000e+00 1.000000000000e+00 1.000000000000e+00 1.000000000000e+00 1.000000000000e+00 1.000000000000e+00 1.000000000000e+00 1.000000000000e+00 1.000000000000e+00 1.000000000000e+00 1.000000000000e+00 1.000000000000e+00 1.000000000000e+00 1.000000000000e+00 1.000000000000e+00 1.000000000000e+00 1.000000000000e+00 1.000000000000e+00 1.000000000000e+00 1.000000000000e+00 1.000000000000e+00 1.000000000000e+00 1.000000000000e+00 1.000000000000e+00 1.000000000000e+00 1.000000000000e+00 1.000000000000e+00 1.000000000000e+00 1.000000000000e+00 1.000000000000e+00 1.000000000000e+00 1.000000000000e+00 
1.000000000000e+00 1.000301001351e+00 9.994993038900e-01 1.000089752643e+00 9.992722696942e-01 9.998888867206e-01 9.990384083221e-01 9.996985076727e-01 9.987988167567e-01 9.995191734275e-01 9.985554671120e-01 9.993521000246e-01 9.983113976838e-01 9.991993194319e-01 9.980708505798e-01 9.990637791171e-01 9.978393418090e-01 9.989493723426e-01 9.976236505624e-01 9.988608895036e-01 9.974317162140e-01 9.988038830363e-01 9.972724345749e-01 9.987844417047e-01 9.971553493219e-01 9.988088746014e-01 9.970902403994e-01 9.988833110063e-01 9.970866184815e-01 9.990132292288e-01 9.971531430257e-01 9.992029353980e-01 9.972969905686e-01 9.994550213087e-01 9.975232089669e-01 9.997698381077e-01 9.978341013301e-01 1.000145028820e+00 9.982286892905e-01 1.000575166370e+00 9.987023078147e-01 1.001051543705e+00 9.992463818818e-01 1.001562157994e+00 9.998484281943e-01 1.002091920964e+00 1.000492312322e+00 1.002623112382e+00 1.001158773638e+00 1.003136074110e+00 1.001826208238e+00 1.003610119617e+00 1.002471675661e+00 1.004024610597e+00 1.003072071307e+00 1.004360131146e+00 1.003605385867e+00 1.004599673743e+00 1.004051958810e+00 1.004729742631e+00 1.004395627377e+00 1.004741280949e+00 1.004624676924e+00 1.004630338813e+00 1.004732513052e+00 1.004398419788e+00 1.004717999374e+00 1.004052470827e+00 1.004585434569e+00 1.003604512740e+00 1.004344174963e+00 1.003070940756e+00 1.004007940609e+00 1.002471554003e+00 1.003593869745e+00 1.001828395288e+00 1.003121405799e+00 1.001164496033e+00 1.002611110805e+00 1.000502624461e+00 1.002083498665e+00 9.998641284177e-01 1.001557972067e+00 9.992679490714e-01 1.001051929929e+00 9.987298607001e-01 1.000580090778e+00 9.982619677330e-01 1.000154054285e+00 9.978724661616e-01 9.997821011317e-01 9.975656548684e-01 9.994692124936e-01 9.973421651636e-01 9.992172762018e-01 9.971993649017e-01 9.990254376311e-01 9.971318871891e-01 9.988905494980e-01 9.971322325004e-01 9.988076754109e-01 9.971913961158e-01 9.987706062139e-01 9.972994790882e-01 9.987723548177e-01 9.974462492522e-01 9.988056032034e-01 9.976216280097e-01 9.988630836612e-01 9.978160878333e-01 9.989378843072e-01 9.980209538949e-01 9.990236759481e-01 9.982286104648e-01 9.991148630873e-01 9.984326184302e-01 9.992066660824e-01 9.986277542934e-01 9.992951440631e-01 9.988099832018e-01 9.993771690344e-01 9.989763790822e-01 9.994503627541e-01 9.991250164284e-01 9.995130779501e-01 9.992552140104e-01 9.995664081405e-01 9.993779252795e-01 9.996714338594e-01 9.996548825236e-01 9.998325112227e-01 9.997109118410e-01 9.998645012677e-01 9.997700844886e-01 9.998933334221e-01 9.998194800415e-01 9.999170782868e-01 9.998598737862e-01 9.999363225461e-01 9.998924872532e-01 9.999517086456e-01 9.999184843936e-01 9.999638409268e-01 9.999389400664e-01 9.999732743798e-01 9.999548254600e-01 9.999805065143e-01 9.999669989425e-01 9.999859726367e-01 9.999762032008e-01 9.999900449579e-01 9.999830679840e-01 9.999930349168e-01 9.999881171041e-01 9.999951978101e-01 9.999917782782e-01 9.999967388425e-01 9.999943945476e-01 9.999978198477e-01 9.999962362463e-01 9.999985661011e-01 9.999975127391e-01 9.999990728110e-01 9.999983833861e-01 9.999994110195e-01 9.999989673922e-01 9.999996327687e-01 9.999993523703e-01 9.999997754772e-01 9.999996015705e-01 9.999998655428e-01 9.999997598261e-01 9.999999212286e-01 9.999998583220e-01 9.999999549187e-01 9.999999183308e-01 9.999999748371e-01 9.999999540717e-01 9.999999863274e-01 9.999999748493e-01 9.999999927834e-01 9.999999866182e-01 9.999999963094e-01 9.999999930997e-01 9.999999981766e-01 9.999999965621e-01 9.999999991328e-01 9.999999983509e-01 9.999999996046e-01 9.999999992417e-01 9.999999998281e-01 9.999999996675e-01 9.999999999292e-01 9.999999998619e-01 9.999999999726e-01 9.999999999461e-01 9.999999999901e-01 9.999999999804e-01 9.999999999967e-01 9.999999999935e-01 9.999999999990e-01 9.999999999981e-01 9.999999999997e-01 9.999999999995e-01 9.999999999999e-01 9.999999999999e-01 1.000000000000e+00 1.000000000000e+00 1.000000000000e+00 1.000000000000e+00 1.000000000000e+00 1.000000000000e+00 1.000000000000e+00 1.000000000000e+00 1.000000000000e+00 1.000000000000e+00 1.000000000000e+00 1.000000000000e+00 1.000000000000e+00 1.000000000000e+00 1.000000000000e+00 1.000000000000e+00 1.000000000000e+00 1.000000000000e+00 1.000000000000e+00 1.000000000000e+00 1.000000000000e+00 1.000000000000e+00 1.000000000000e+00 1.000000000000e+00 1.000000000000e+00 1.000000000000e+00 1.000000000000e+00 1.000000000000e+00 1.000000000000e+00 1.000000000000e+00 1.000000000000e+00 1.000000000000e+00 1.000000000000e+00 1.000000000000e+00 1.000000000000e+00 1.000000000000e+00 1.000000000000e+00 1.000000000000e+00 1.000000000000e+00 1.000000000000e+00 1.000000000000e+00 1.000000000000e+00 1.000000000000e+00 1.000000000000e+00 1.000000000000e+00 1.000000000000e+00 1.000000000000e+00 1.000000000000e+00 1.000000000000e+00 1.000000000000e+00 1.000000000000e+00 1.000000000000e+00 1.000000000000e+00 1.000000000000e+00 1.000000000000e+00 1.000000000000e+00 1.000000000000e+00 1.000000000000e+00 1.000000000000e+00 1.000000000000e+00 1.000000000000e+00 1.000000000000e+00 1.000000000000e+00 1.000000000000e+00 1.000000000000e+00 1.000000000000e+00 1.000000000000e+00 1.000000000000e+00 1.000000000000e+00 1.000000000000e+00 1.000000000000e+00 1.000000000000e+00 1.000000000000e+00 1.000000000000e+00 1.000000000000e+00 1.000000000000e+00 1.000000000000e+00 1.000000000000e+00 1.000000000000e+00 1.000000000000e+00 1.000000000000e+00 1.000000000000e+00 1.000000000000e+00 1.000000000000e+00 1.000000000000e+00 1.000000000000e+00 1.000000000000e+00 1.000000000000e+00 1.000000000000e+00 1.000000000000e+00 1.000000000000e+00 1.000000000000e+00 1.000000000000e+00 1.000000000000e+00 1.000000000000e+00 1.000000000000e+00 1.000000000000e+00 1.000000000000e+00 1.000000000000e+00 1.000000000000e+00 1.000000000000e+00 1.000000000000e+00 1.000000000000e+00 1.000000000000e+00 1.000000000000e+00 1.000000000000e+00 1.000000000000e+00 1.000000000000e+00 1.000000000000e+00 1.000000000000e+00 1.000000000000e+00 1.000000000000e+00 1.000000000000e+00 1.000000000000e+00 1.000000000000e+00 1.000000000000e+00 1.000000000000e+00 1.000000000000e+00 1.000000000000e+00 1.000000000000e+00 1.000000000000e+00 1.000000000000e+00 1.000000000000e+00 1.000000000000e+00 1.000000000000e+00 1.000000000000e+00 1.000000000000e+00 1.000000000000e+00 1.000000000000e+00 1.000000000000e+00 1.000000000000e+00 1.000000000000e+00 1.000000000000e+00 1.000000000000e+00 1.000000000000e+00 1.000000000000e+00 1.000000000000e+00 1.000000000000e+00 1.000000000000e+00 1.000000000000e+00 1.000000000000e+00 1.000000000000e+00 1.000000000000e+00 1.000000000000e+00 1.000000000000e+00 1.000000000000e+00 1.000000000000e+00 1.000000000000e+00 1.000000000000e+00 1.000000000000e+00 1.000000000000e+00 1.000000000000e+00 1.000000000000e+00 1.000000000000e+00 1.000000000000e+00 1.000000000000e+00 1.000000000000e+00 1.000000000000e+00 1.000000000000e+00 1.000000000000e+00 1.000000000000e+00 1.000000000000e+00 1.000000000000e+00 1.000000000000e+00 1.000000000000e+00 1.000000000000e+00 1.000000000000e+00 1.000000000000e+00 1.000000000000e+00 1.000000000000e+00 1.000000000000e+00 1.000000000000e+00 1.000000000000e+00 1.000000000000e+00 1.000000000000e+00 1.000000000000e+00 1.000000000000e+00 1.000000000000e+00 1.000000000000e+00 1.000000000000e+00 1.000000000000e+00 1.000000000000e+00 1.000000000000e+00 1.000000000000e+00 1.000000000000e+00 1.000000000000e+00 1.000000000000e+00 1.000000000000e+00 1.000000000000e+00 1.000000000000e+00 1.000000000000e+00 1.000000000000e+00 1.000000000000e+00 1.000000000000e+00 1.000000000000e+00 1.000000000000e+00 1.000000000000e+00 1.000000000000e+00 1.000000000000e+00 1.000000000000e+00 1.000000000000e+00 1.000000000000e+00 1.000000000000e+00 1.000000000000e+00 1.000000000000e+00 1.000000000000e+00 1.000000000000e+00 1.000000000000e+00 1.000000000000e+00 1.000000000000e+00 1.000000000000e+00 1.000000000000e+00 1.000000000000e+00 1.000000000000e+00 1.000000000000e+00 1.000000000000e+00 1.000000000000e+00 1.000000000000e+00 1.000000000000e+00 1.000000000000e+00 1.000000000000e+00 1.000000000000e+00 1.000000000000e+00 1.000000000000e+00 1.000000000000e+00 1.000000000000e+00 1.000000000000e+00 1.000000000000e+00 1.000000000000e+00 1.000000000000e+00 1.000000000000e+00 1.000000000000e+00 1.000000000000e+00 1.000000000000e+00 1.000000000000e+00 1.000000000000e+00 1.000000000000e+00 1.000000000000e+00 1.000000000000e+00 1.000000000000e+00 1.000000000000e+00 1.000000000000e+00 1.000000000000e+00 1.000000000000e+00 1.000000000000e+00 1.000000000000e+00 1.000000000000e+00 1.000000000000e+00 1.000000000000e+00 1.000000000000e+00 1.000000000000e+00 1.000000000000e+00 1.000000000000e+00 1.000000000000e+00 1.000000000000e+00 1.000000000000e+00 1.000000000000e+00 1.000000000000e+00 1.000000000000e+00 1.000000000000e+00 1.000000000000e+00 1.000000000000e+00 1.000000000000e+00 1.000000000000e+00 1.000000000000e+00 1.000000000000e+00 1.000000000000e+00 1.000000000000e+00 1.000000000000e+00 1.000000000000e+00 1.000000000000e+00 1.000000000000e+00 1.000000000000e+00 1.000000000000e+00 1.000000000000e+00 1.000000000000e+00 1.000000000000e+00 1.000000000000e+00 1.000000000000e+00 1.000000000000e+00 1.000000000000e+00 1.000000000000e+00 1.000000000000e+00 1.000000000000e+00 1.000000000000e+00 1.000000000000e+00 1.000000000000e+00 1.000000000000e+00 1.000000000000e+00 1.000000000000e+00 1.000000000000e+00 1.000000000000e+00 1.000000000000e+00 1.000000000000e+00 1.000000000000e+00 1.000000000000e+00 1.000000000000e+00 1.000000000000e+00 1.000000000000e+00 1.000000000000e+00 1.000000000000e+00 1.000000000000e+00 1.000000000000e+00 1.000000000000e+00 1.000000000000e+00 1.000000000000e+00 1.000000000000e+00 1.000000000000e+00 