# vtk DataFile Version 3.0
Vortex Output
ASCII
DATASET STRUCTURED_POINTS
FIELD FieldData 2
TIME 1 1 double
5.000000
CYCLE 1 1 int
2000
DIMENSIONS 514 130 1
ORIGIN 0 0 0
SPACING 1 1 1
POINT_DATA 66820
SCALARS u double 1
LOOKUP_TABLE default
1.000081863161e+00 1.000081863161e+00 1.000328910635e+00 1.000740448616e+00 1.001318375008e+00 1.002062082731e+00 1.002973718469e+00 1.004052883231e+00 1.005301942793e+00 1.006720666198e+00 1.008311603665e+00 1.010074640460e+00 1.012012463784e+00 1.014125010384e+00 1.016415044224e+00 1.018882476094e+00 1.021530074032e+00 1.024357633134e+00 1.027367840887e+00 1.030560275368e+00 1.033937447896e+00 1.037498607844e+00 1.041245985247e+00 1.045178380605e+00 1.049297630282e+00 1.053601959906e+00 1.058092695597e+00 1.062767359838e+00 1.067626651747e+00 1.072667264641e+00 1.077889158655e+00 1.083288079626e+00 1.088863147369e+00 1.094609055891e+00 1.100524000566e+00 1.106601540023e+00 1.112838885261e+00 1.119228403801e+00 1.125766293427e+00 1.132443709296e+00 1.139255844510e+00 1.146192660758e+00 1.153248397299e+00 1.160411885400e+00 1.167676506531e+00 1.175030070333e+00 1.182465241985e+00 1.189968962714e+00 1.197533365403e+00 1.205144715836e+00 1.212794834772e+00 1.220469537282e+00 1.228160578790e+00 1.235853569149e+00 1.243540459580e+00 1.251206907716e+00 1.258845322004e+00 1.266441653915e+00 1.273989016201e+00 1.281473878966e+00 1.288890278079e+00 1.296225392946e+00 1.303474361212e+00 1.310625217917e+00 1.317674332176e+00 1.324610689982e+00 1.331431967571e+00 1.338128143502e+00 1.344698221626e+00 1.351133162252e+00 1.357433264762e+00 1.363590412762e+00 1.369606122168e+00 1.375473101328e+00 1.381193964686e+00 1.386762116005e+00 1.392181120393e+00 1.397444927130e+00 1.402557883770e+00 1.407514324810e+00 1.412319200830e+00 1.416967070332e+00 1.421463304515e+00 1.425802532167e+00 1.429990366722e+00 1.434021368068e+00 1.437901223254e+00 1.441624304291e+00 1.445196217459e+00 1.448611052501e+00 1.451874198187e+00 1.454979395414e+00 1.457931698827e+00 1.460724463932e+00 1.463362316544e+00 1.465838221591e+00 1.468156304430e+00 1.470309166120e+00 1.472300383629e+00 1.474122252499e+00 1.475777777161e+00 1.477259036535e+00 1.478568461604e+00 1.479698032046e+00 1.480649626383e+00 1.481415267614e+00 1.481996322023e+00 1.482385018288e+00 1.482582264470e+00 1.482580669502e+00 1.482380774400e+00 1.481975821468e+00 1.481366116574e+00 1.480545738412e+00 1.479514842242e+00 1.478268545412e+00 1.476806956299e+00 1.475126434963e+00 1.473227148030e+00 1.471106890895e+00 1.468765989850e+00 1.466203850618e+00 1.463421051842e+00 1.460418759966e+00 1.457197884923e+00 1.453761471958e+00 1.450110815465e+00 1.446250896415e+00 1.442184195227e+00 1.437916648515e+00 1.433450768896e+00 1.428795723732e+00 1.423954221391e+00 1.418937341403e+00 1.413748230305e+00 1.408399906245e+00 1.402895942320e+00 1.397251203864e+00 1.391469646938e+00 1.385567858421e+00 1.379550122217e+00 1.373434595093e+00 1.367225826939e+00 1.360943371764e+00 1.354591980852e+00 1.348192416725e+00 1.341749568504e+00 1.335285207159e+00 1.328804300522e+00 1.322329420943e+00 1.315865563156e+00 1.309435890624e+00 1.303045382705e+00 1.296717583621e+00 1.290457426137e+00 1.284288627145e+00 1.278216053421e+00 1.272263390280e+00 1.266435430985e+00 1.260755629658e+00 1.255228709711e+00 1.249877699178e+00 1.244707265116e+00 1.239739818683e+00 1.234979991913e+00 1.230449391177e+00 1.226152640007e+00 1.222110353104e+00 1.218327173883e+00 1.214822537069e+00 1.211601132115e+00 1.208681020866e+00 1.206066957706e+00 1.203775430088e+00 1.201811262774e+00 1.200189153742e+00 1.198913983054e+00 1.197998426263e+00 1.197447380656e+00 1.197271261871e+00 1.197474982710e+00 1.198066580101e+00 1.199051021093e+00 1.200433695644e+00 1.202219465000e+00 1.204410759217e+00 1.207012174690e+00 1.210022876532e+00 1.213447015761e+00 1.217280187089e+00 1.221525891192e+00 1.226175852209e+00 1.231232695997e+00 1.236683992098e+00 1.242531256524e+00 1.248757650563e+00 1.255363346898e+00 1.262326892012e+00 1.269646897925e+00 1.277297155316e+00 1.285274530684e+00 1.293548002597e+00 1.302112556756e+00 1.310932406633e+00 1.320000588165e+00 1.329276716826e+00 1.338751891213e+00 1.348381429457e+00 1.358154598713e+00 1.368022862744e+00 1.377973864424e+00 1.387955801199e+00 1.397955002435e+00 1.407917128081e+00 1.417827604417e+00 1.427630411465e+00 1.437310571720e+00 1.446811351637e+00 1.456117940513e+00 1.465173938842e+00 1.473965320656e+00 1.482437115064e+00 1.490576716788e+00 1.498331685429e+00 1.505691457015e+00 1.512607187472e+00 1.519070923624e+00 1.525038402405e+00 1.530504763325e+00 1.535431183019e+00 1.539816252621e+00 1.543627278620e+00 1.546866507406e+00 1.549507859025e+00 1.551557256567e+00 1.552995481709e+00 1.553831960413e+00 1.554054353689e+00 1.553675349849e+00 1.552689567977e+00 1.551112712507e+00 1.548945996330e+00 1.546207528315e+00 1.542904652735e+00 1.539057332785e+00 1.534678527727e+00 1.529789497697e+00 1.524408231538e+00 1.518556724998e+00 1.512257354897e+00 1.505532302988e+00 1.498407656537e+00 1.490905261876e+00 1.483054219759e+00 1.474875542535e+00 1.466400586407e+00 1.457651148696e+00 1.448657402668e+00 1.439438455985e+00 1.430028687041e+00 1.420444847916e+00 1.410721445423e+00 1.400873345198e+00 1.390934958664e+00 1.380919225423e+00 1.370860072318e+00 1.360768494114e+00 1.350677606328e+00 1.340596503269e+00 1.330557232968e+00 1.320567090415e+00 1.310656866221e+00 1.300832203767e+00 1.291122505843e+00 1.281531947656e+00 1.272088465481e+00 1.262794974752e+00 1.253677909828e+00 1.244739149561e+00 1.236003625666e+00 1.227472409094e+00 1.219168954399e+00 1.211093750569e+00 1.203268818516e+00 1.195694281380e+00 1.188390780272e+00 1.181358272757e+00 1.174616077076e+00 1.168164164626e+00 1.162020584021e+00 1.156185474756e+00 1.150675658990e+00 1.145491569722e+00 1.140648829638e+00 1.136148258318e+00 1.132004283821e+00 1.128218169650e+00 1.124803126139e+00 1.121760878925e+00 1.119103364209e+00 1.116832745984e+00 1.114959592805e+00 1.113486440859e+00 1.112422361823e+00 1.111770164265e+00 1.111537278305e+00 1.111726704999e+00 1.112344146190e+00 1.113392679815e+00 1.114875993343e+00 1.116796927784e+00 1.119156818875e+00 1.121957966683e+00 1.125199024835e+00 1.128881443560e+00 1.133000868128e+00 1.137557592575e+00 1.142543946460e+00 1.147958778947e+00 1.153790833787e+00 1.160037260418e+00 1.166683001797e+00 1.173723300798e+00 1.181139154587e+00 1.188923751097e+00 1.197054077193e+00 1.205521181889e+00 1.214298063596e+00 1.223373614718e+00 1.232716955436e+00 1.242314869318e+00 1.252132796669e+00 1.262155523736e+00 1.272345096645e+00 1.282684478646e+00 1.293132694692e+00 1.303671123023e+00 1.314256228932e+00 1.324868109918e+00 1.335461223482e+00 1.346014760288e+00 1.356481813308e+00 1.366841112217e+00 1.377045118339e+00 1.387072617216e+00 1.396876254330e+00 1.406435452827e+00 1.415703927726e+00 1.424662373507e+00 1.433266508662e+00 1.441498964394e+00 1.449318416303e+00 1.456710101782e+00 1.463636590934e+00 1.470086367031e+00 1.476026774262e+00 1.481450113038e+00 1.486329277788e+00 1.490660846642e+00 1.494423888083e+00 1.497619561471e+00 1.500233526441e+00 1.502271614611e+00 1.503726218833e+00 1.504607643315e+00 1.504914780155e+00 1.504661797347e+00 1.503853416605e+00 1.502506874055e+00 1.500632123317e+00 1.498248860069e+00 1.495371714925e+00 1.492022221576e+00 1.488219052454e+00 1.483984916454e+00 1.479341827371e+00 1.474312991970e+00 1.468923031686e+00 1.463194991977e+00 1.457155369350e+00 1.450826436779e+00 1.444235861581e+00 1.437404590525e+00 1.430360767459e+00 1.423124993268e+00 1.415723362861e+00 1.408173593811e+00 1.400503450934e+00 1.392727963679e+00 1.384873692839e+00 1.376953292065e+00 1.368992003829e+00 1.361000101105e+00 1.353001309089e+00 1.345003555968e+00 1.337028919115e+00 1.329083080407e+00 1.321186404081e+00 1.313342474242e+00 1.305569930813e+00 1.297870444612e+00 1.290260962834e+00 1.282741450212e+00 1.275327224947e+00 1.268016763906e+00 1.260823842753e+00 1.253745669892e+00 1.246794579599e+00 1.239966724520e+00 1.233273106821e+00 1.226709023443e+00 1.220284256685e+00 1.213993430994e+00 1.207845220108e+00 1.201833739719e+00 1.195966662558e+00 1.190237738506e+00 1.184653741166e+00 1.179208176458e+00 1.173907013832e+00 1.168743616521e+00 1.163723237207e+00 1.158839178199e+00 1.154096054902e+00 1.149487172429e+00 1.145016580477e+00 1.140677634355e+00 1.136473881871e+00 1.132398761411e+00 1.128455375266e+00 1.124637265123e+00 1.120947137092e+00 1.117378645551e+00 1.113934143202e+00 1.110607397431e+00 1.107400444278e+00 1.104307157026e+00 1.101329286353e+00 1.098460798444e+00 1.095703185077e+00 1.093050487878e+00 1.090503961987e+00 1.088057703814e+00 1.085712750595e+00 1.083463230834e+00 1.081309979720e+00 1.079247134155e+00 1.077275340942e+00 1.075388721583e+00 1.073587746611e+00 1.071866499029e+00 1.070225284311e+00 1.068658125253e+00 1.067165173185e+00 1.065740370971e+00 1.064383727001e+00 1.063089086997e+00 1.061856328433e+00 1.060679185642e+00 1.059557418554e+00 1.058484639242e+00 1.057460505299e+00 1.056478499436e+00 1.055538194419e+00 1.054632940666e+00 1.053762246416e+00 1.052919331445e+00 1.052103663044e+00 1.051308337049e+00 1.050532807206e+00 1.049770057698e+00 1.049019560527e+00 1.048274206746e+00 1.047533523491e+00 1.046790334202e+00 1.046044263905e+00 1.045288101877e+00 1.044521620615e+00 1.043737617755e+00 1.042936070807e+00 1.042109838703e+00 1.041259170821e+00 1.040377052310e+00 1.039464082127e+00 1.038513450315e+00 1.037526195724e+00 1.036495807691e+00 1.035423869810e+00 1.034304282963e+00 1.033139296980e+00 1.031923356658e+00 1.030659518425e+00 1.029342925812e+00 1.027977603330e+00 1.026559572760e+00 1.025094011407e+00 1.023578025419e+00 1.022018154494e+00 1.020412823083e+00 1.018770168524e+00 1.017090195369e+00 1.015382898838e+00 1.013650151565e+00 1.011904089766e+00 1.010148767859e+00 1.008398786127e+00 1.006660845828e+00 1.004953143519e+00 1.003290167261e+00 1.001721987531e+00 1.000000000000e+00 1.000000000000e+00 1.000000000000e+00 1.000000000000e+00 
1.000000000000e+00 1.000081863161e+00 1.000328910635e+00 1.000740448616e+00 1.001318375008e+00 1.002062082731e+00 1.002973718469e+00 1.004052883231e+00 1.005301942793e+00 1.006720666198e+00 1.008311603665e+00 1.010074640460e+00 1.012012463784e+00 1.014125010384e+00 1.016415044224e+00 1.018882476094e+00 1.021530074032e+00 1.024357633134e+00 1.027367840887e+00 1.030560275368e+00 1.033937447896e+00 1.037498607844e+00 1.041245985247e+00 1.045178380605e+00 1.049297630282e+00 1.053601959906e+00 1.058092695597e+00 1.062767359838e+00 1.067626651747e+00 1.072667264641e+00 1.077889158655e+00 1.083288079626e+00 1.088863147369e+00 1.094609055891e+00 1.100524000566e+00 1.106601540023e+00 1.112838885261e+00 1.119228403801e+00 1.125766293427e+00 1.132443709296e+00 1.139255844510e+00 1.146192660758e+00 1.153248397299e+00 1.160411885400e+00 1.167676506531e+00 1.175030070333e+00 1.182465241985e+00 1.189968962714e+00 1.197533365403e+00 1.205144715836e+00 1.212794834772e+00 1.220469537282e+00 1.228160578790e+00 1.235853569149e+00 1.243540459580e+00 1.251206907716e+00 1.258845322004e+00 1.266441653915e+00 1.273989016201e+00 1.281473878966e+00 1.288890278079e+00 1.296225392946e+00 1.303474361212e+00 1.310625217917e+00 1.317674332176e+00 1.324610689982e+00 1.331431967571e+00 1.338128143502e+00 1.344698221626e+00 1.351133162252e+00 1.357433264762e+00 1.363590412762e+00 1.369606122168e+00 1.375473101328e+00 1.381193964686e+00 1.386762116005e+00 1.392181120393e+00 1.397444927130e+00 1.402557883770e+00 1.407514324810e+00 1.412319200830e+00 1.416967070332e+00 1.421463304515e+00 1.425802532167e+00 1.429990366722e+00 1.434021368068e+00 1.437901223254e+00 1.441624304291e+00 1.445196217459e+00 1.448611052501e+00 1.451874198187e+00 1.454979395414e+00 1.457931698827e+00 1.460724463932e+00 1.463362316544e+00 1.465838221591e+00 1.468156304430e+00 1.470309166120e+00 1.472300383629e+00 1.474122252499e+00 1.475777777161e+00 1.477259036535e+00 1.478568461604e+00 1.479698032046e+00 1.480649626383e+00 1.481415267614e+00 1.481996322023e+00 1.482385018288e+00 1.482582264470e+00 1.482580669502e+00 1.482380774400e+00 1.481975821468e+00 1.481366116574e+00 1.480545738412e+00 1.479514842242e+00 1.478268545412e+00 1.476806956299e+00 1.475126434963e+00 1.473227148030e+00 1.471106890895e+00 1.468765989850e+00 1.466203850618e+00 1.463421051842e+00 1.460418759966e+00 1.457197884923e+00 1.453761471958e+00 1.450110815465e+00 1.446250896415e+00 1.442184195227e+00 1.437916648515e+00 1.433450768896e+00 1.428795723732e+00 1.423954221391e+00 1.418937341403e+00 1.413748230305e+00 1.408399906245e+00 1.402895942320e+00 1.397251203864e+00 1.391469646938e+00 1.385567858421e+00 1.379550122217e+00 1.373434595093e+00 1.367225826939e+00 1.360943371764e+00 1.354591980852e+00 1.348192416725e+00 1.341749568504e+00 1.335285207159e+00 1.328804300522e+00 1.322329420943e+00 1.315865563156e+00 1.309435890624e+00 1.303045382705e+00 1.296717583621e+00 1.290457426137e+00 1.284288627145e+00 1.278216053421e+00 1.272263390280e+00 1.266435430985e+00 1.260755629658e+00 1.255228709711e+00 1.249877699178e+00 1.244707265116e+00 1.239739818683e+00 1.234979991913e+00 1.230449391177e+00 1.226152640007e+00 1.222110353104e+00 1.218327173883e+00 1.214822537069e+00 1.211601132115e+00 1.208681020866e+00 1.206066957706e+00 1.203775430088e+00 1.201811262774e+00 1.200189153742e+00 1.198913983054e+00 1.197998426263e+00 1.197447380656e+00 1.197271261871e+00 1.197474982710e+00 1.198066580101e+00 1.199051021093e+00 1.200433695644e+00 1.202219465000e+00 1.204410759217e+00 1.207012174690e+00 1.210022876532e+00 1.213447015761e+00 1.217280187089e+00 1.221525891192e+00 1.226175852209e+00 1.231232695997e+00 1.236683992098e+00 1.242531256524e+00 1.248757650563e+00 1.255363346898e+00 1.262326892012e+00 1.269646897925e+00 1.277297155316e+00 1.285274530684e+00 1.293548002597e+00 1.302112556756e+00 1.310932406633e+00 1.320000588165e+00 1.329276716826e+00 1.338751891213e+00 1.348381429457e+00 1.358154598713e+00 1.368022862744e+00 1.377973864424e+00 1.387955801199e+00 1.397955002435e+00 1.407917128081e+00 1.417827604417e+00 1.427630411465e+00 1.437310571720e+00 1.446811351637e+00 1.456117940513e+00 1.465173938842e+00 1.473965320656e+00 1.482437115064e+00 1.490576716788e+00 1.498331685429e+00 1.505691457015e+00 1.512607187472e+00 1.519070923624e+00 1.525038402405e+00 1.530504763325e+00 1.535431183019e+00 1.539816252621e+00 1.543627278620e+00 1.546866507406e+00 1.549507859025e+00 1.551557256567e+00 1.552995481709e+00 1.553831960413e+00 1.554054353689e+00 1.553675349849e+00 1.552689567977e+00 1.551112712507e+00 1.548945996330e+00 1.546207528315e+00 1.542904652735e+00 1.539057332785e+00 1.534678527727e+00 1.529789497697e+00 1.524408231538e+00 1.518556724998e+00 1.512257354897e+00 1.505532302988e+00 1.498407656537e+00 1.490905261876e+00 1.483054219759e+00 1.474875542535e+00 1.466400586407e+00 1.457651148696e+00 1.448657402668e+00 1.439438455985e+00 1.430028687041e+00 1.420444847916e+00 1.410721445423e+00 1.400873345198e+00 1.390934958664e+00 1.380919225423e+00 1.370860072318e+00 1.360768494114e+00 1.350677606328e+00 1.340596503269e+00 1.330557232968e+00 1.320567090415e+00 1.310656866221e+00 1.300832203767e+00 1.291122505843e+00 1.281531947656e+00 1.272088465481e+00 1.262794974752e+00 1.253677909828e+00 1.244739149561e+00 1.236003625666e+00 1.227472409094e+00 1.219168954399e+00 1.211093750569e+00 1.203268818516e+00 1.195694281380e+00 1.188390780272e+00 1.181358272757e+00 1.174616077076e+00 1.168164164626e+00 1.162020584021e+00 1.156185474756e+00 1.150675658990e+00 1.145491569722e+00 1.140648829638e+00 1.136148258318e+00 1.132004283821e+00 1.128218169650e+00 1.124803126139e+00 1.121760878925e+00 1.119103364209e+00 1.116832745984e+00 1.114959592805e+00 1.113486440859e+00 1.112422361823e+00 1.111770164265e+00 1.111537278305e+00 1.111726704999e+00 1.112344146190e+00 1.113392679815e+00 1.114875993343e+00 1.116796927784e+00 1.119156818875e+00 1.121957966683e+00 1.125199024835e+00 1.128881443560e+00 1.133000868128e+00 1.137557592575e+00 1.142543946460e+00 1.147958778947e+00 1.153790833787e+00 1.160037260418e+00 1.166683001797e+00 1.173723300798e+00 1.181139154587e+00 1.188923751097e+00 1.197054077193e+00 1.205521181889e+00 1.214298063596e+00 1.223373614718e+00 1.232716955436e+00 1.242314869318e+00 1.252132796669e+00 1.262155523736e+00 1.272345096645e+00 1.282684478646e+00 1.293132694692e+00 1.303671123023e+00 1.314256228932e+00 1.324868109918e+00 1.335461223482e+00 1.346014760288e+00 1.356481813308e+00 1.366841112217e+00 1.377045118339e+00 1.387072617216e+00 1.396876254330e+00 1.406435452827e+00 1.415703927726e+00 1.424662373507e+00 1.433266508662e+00 1.441498964394e+00 1.449318416303e+00 1.456710101782e+00 1.463636590934e+00 1.470086367031e+00 1.476026774262e+00 1.481450113038e+00 1.486329277788e+00 1.490660846642e+00 1.494423888083e+00 1.497619561471e+00 1.500233526441e+00 1.502271614611e+00 1.503726218833e+00 1.504607643315e+00 1.504914780155e+00 1.504661797347e+00 1.503853416605e+00 1.502506874055e+00 1.500632123317e+00 1.498248860069e+00 1.495371714925e+00 1.492022221576e+00 1.488219052454e+00 1.483984916454e+00 1.479341827371e+00 1.474312991970e+00 1.468923031686e+00 1.463194991977e+00 1.457155369350e+00 1.450826436779e+00 1.444235861581e+00 1.437404590525e+00 1.430360767459e+00 1.423124993268e+00 1.415723362861e+00 1.408173593811e+00 1.400503450934e+00 1.392727963679e+00 1.384873692839e+00 1.376953292065e+00 1.368992003829e+00 1.361000101105e+00 1.353001309089e+00 1.345003555968e+00 1.337028919115e+00 1.329083080407e+00 1.321186404081e+00 1.313342474242e+00 1.305569930813e+00 1.297870444612e+00 1.290260962834e+00 1.282741450212e+00 1.275327224947e+00 1.268016763906e+00 1.260823842753e+00 1.253745669892e+00 1.246794579599e+00 1.239966724520e+00 1.233273106821e+00 1.226709023443e+00 1.220284256685e+00 1.213993430994e+00 1.207845220108e+00 1.201833739719e+00 1.195966662558e+00 1.190237738506e+00 1.184653741166e+00 1.179208176458e+00 1.173907013832e+00 1.168743616521e+00 1.163723237207e+00 1.158839178199e+00 1.154096054902e+00 1.149487172429e+00 1.145016580477e+00 1.140677634355e+00 1.136473881871e+00 1.132398761411e+00 1.128455375266e+00 1.124637265123e+00 1.120947137092e+00 1.117378645551e+00 1.113934143202e+00 1.110607397431e+00 1.107400444278e+00 1.104307157026e+00 1.101329286353e+00 1.098460798444e+00 1.095703185077e+00 1.093050487878e+00 1.090503961987e+00 1.088057703814e+00 1.085712750595e+00 1.083463230834e+00 1.081309979720e+00 1.079247134155e+00 1.077275340942e+00 1.075388721583e+00 1.073587746611e+00 1.071866499029e+00 1.070225284311e+00 1.068658125253e+00 1.067165173185e+00 1.065740370971e+00 1.064383727001e+00 1.063089086997e+00 1.061856328433e+00 1.060679185642e+00 1.059557418554e+00 1.058484639242e+00 1.057460505299e+00 1.056478499436e+00 1.055538194419e+00 1.054632940666e+00 1.053762246416e+00 1.052919331445e+00 1.052103663044e+00 1.051308337049e+00 1.050532807206e+00 1.049770057698e+00 1.049019560527e+00 1.048274206746e+00 1.047533523491e+00 1.046790334202e+00 1.046044263905e+00 1.045288101877e+00 1.044521620615e+00 1.043737617755e+00 1.042936070807e+00 1.042109838703e+00 1.041259170821e+00 1.040377052310e+00 1.039464082127e+00 1.038513450315e+00 1.037526195724e+00 1.036495807691e+00 1.035423869810e+00 1.034304282963e+00 1.033139296980e+00 1.031923356658e+00 1.030659518425e+00 1.029342925812e+00 1.027977603330e+00 1.026559572760e+00 1.025094011407e+00 1.023578025419e+00 1.022018154494e+00 1.020412823083e+00 1.018770168524e+00 1.017090195369e+00 1.015382898838e+00 1.013650151565e+00 1.011904089766e+00 1.010148767859e+00 1.008398786127e+00 1.006660845828e+00 1.004953143519e+00 1.003290167261e+00 1.001721987531e+00 1.000000000000e+00 1.000000000000e+00 1.000000000000e+00 1.000000000000e+00 
1.000000000000e+00 1.000082307768e+00 1.000328586262e+00 1.000740583067e+00 1.001317592527e+00 1.002061644222e+00 1.002972242737e+00 1.004051653217e+00 1.005299574300e+00 1.006718479662e+00 1.008308215607e+00 1.010071422361e+00 1.012008034920e+00 1.014120805756e+00 1.016409687122e+00 1.018877476998e+00 1.021524061005e+00 1.024352203650e+00 1.027361627978e+00 1.030554974412e+00 1.033931696309e+00 1.037494208917e+00 1.041241579094e+00 1.045175887144e+00 1.049295689146e+00 1.053602614622e+00 1.058094580185e+00 1.062772646189e+00 1.067633960728e+00 1.072678898544e+00 1.077903714799e+00 1.083307989585e+00 1.088886971290e+00 1.094639350032e+00 1.100559270825e+00 1.106644459120e+00 1.112887884298e+00 1.119286260228e+00 1.125831339789e+00 1.132518812969e+00 1.139339213101e+00 1.146287234472e+00 1.153352230757e+00 1.160527973388e+00 1.167802722246e+00 1.175169445215e+00 1.182615440526e+00 1.190133037063e+00 1.197708746926e+00 1.205334465157e+00 1.212996130236e+00 1.220685441068e+00 1.228388002304e+00 1.236095575770e+00 1.243793686878e+00 1.251474427214e+00 1.259123498038e+00 1.266733580468e+00 1.274290792300e+00 1.281788642101e+00 1.289213876406e+00 1.296561033938e+00 1.303817661754e+00 1.310979485540e+00 1.318034975534e+00 1.324981148177e+00 1.331807465676e+00 1.338512282905e+00 1.345086068340e+00 1.351528507765e+00 1.357831039008e+00 1.363994620445e+00 1.370011577628e+00 1.375884039553e+00 1.381605101963e+00 1.387177927728e+00 1.392596239458e+00 1.397864072029e+00 1.402975616288e+00 1.407935601691e+00 1.412738523420e+00 1.417389621378e+00 1.421883534976e+00 1.426225831409e+00 1.430411145771e+00 1.434445196759e+00 1.438322484511e+00 1.442048715865e+00 1.445618148249e+00 1.449036329590e+00 1.452297193471e+00 1.455406001058e+00 1.458356310226e+00 1.461152988817e+00 1.463789198137e+00 1.466269328867e+00 1.468586156796e+00 1.470743535236e+00 1.472733897546e+00 1.474560523470e+00 1.476215578406e+00 1.477701756159e+00 1.479011058497e+00 1.480145603910e+00 1.481097362198e+00 1.481867908490e+00 1.482449335909e+00 1.482842726852e+00 1.483040472267e+00 1.483043231086e+00 1.482843894899e+00 1.482442811257e+00 1.481833605097e+00 1.481016419494e+00 1.479985820213e+00 1.478741847138e+00 1.477280213973e+00 1.475600964383e+00 1.473701160278e+00 1.471580954562e+00 1.469238943031e+00 1.466675487092e+00 1.463890880800e+00 1.460885782432e+00 1.457662321970e+00 1.454221531577e+00 1.450567498617e+00 1.446701745430e+00 1.442630352437e+00 1.438355270706e+00 1.433884112940e+00 1.429219692941e+00 1.424372122128e+00 1.419344263049e+00 1.414148248893e+00 1.408787400604e+00 1.403275757232e+00 1.397617053202e+00 1.391827119187e+00 1.385910052218e+00 1.379883333468e+00 1.373751363191e+00 1.367533108528e+00 1.361233208826e+00 1.354871934165e+00 1.348454098040e+00 1.342001076870e+00 1.335517796204e+00 1.329026533233e+00 1.322532269519e+00 1.316057972637e+00 1.309608632746e+00 1.303207696088e+00 1.296860124532e+00 1.290589632682e+00 1.284401128913e+00 1.278318389268e+00 1.272346255496e+00 1.266508362715e+00 1.260809484663e+00 1.255272918145e+00 1.249903378217e+00 1.244723630684e+00 1.239738350279e+00 1.234969582882e+00 1.230421987973e+00 1.226116704810e+00 1.222058406424e+00 1.218267138860e+00 1.214747617576e+00 1.211518606168e+00 1.208584886999e+00 1.205963745895e+00 1.203660046816e+00 1.201689392257e+00 1.200056726533e+00 1.198775749002e+00 1.197851462784e+00 1.197295432942e+00 1.197112692630e+00 1.197312469778e+00 1.197899843478e+00 1.198881524592e+00 1.200262569912e+00 1.202046883131e+00 1.204239351295e+00 1.206840765716e+00 1.209855672441e+00 1.213281443009e+00 1.217122085862e+00 1.221371246719e+00 1.226032176768e+00 1.231094499828e+00 1.236560474117e+00 1.242415428050e+00 1.248660385729e+00 1.255276144878e+00 1.262262262462e+00 1.269594826337e+00 1.277271717243e+00 1.285264209271e+00 1.293568338918e+00 1.302150557220e+00 1.311004946906e+00 1.320093239455e+00 1.329407529208e+00 1.338905059976e+00 1.348575992110e+00 1.358373453589e+00 1.368285824581e+00 1.378262635130e+00 1.388290743897e+00 1.398316746393e+00 1.408326342742e+00 1.418263994730e+00 1.428114703920e+00 1.437821720483e+00 1.447369890112e+00 1.456702270711e+00 1.465804156472e+00 1.474619498247e+00 1.483134677707e+00 1.491295652158e+00 1.499090532462e+00 1.506468382012e+00 1.513419650121e+00 1.519897547091e+00 1.525895400756e+00 1.531371504670e+00 1.536322499504e+00 1.540712549568e+00 1.544541902436e+00 1.547781190985e+00 1.550434393427e+00 1.552478985578e+00 1.553922609927e+00 1.554749722634e+00 1.554971395226e+00 1.554579047192e+00 1.553586912246e+00 1.551993204654e+00 1.549814846784e+00 1.547056445398e+00 1.543737069166e+00 1.539867230047e+00 1.535467587253e+00 1.530553998265e+00 1.525148148216e+00 1.519270615741e+00 1.512943550435e+00 1.506191581732e+00 1.499036783706e+00 1.491507144599e+00 1.483624171746e+00 1.475418561455e+00 1.466910970565e+00 1.458134032007e+00 1.449107028601e+00 1.439862393000e+00 1.430418837623e+00 1.420810813082e+00 1.411054078772e+00 1.401183302660e+00 1.391212372329e+00 1.381175634768e+00 1.371085029683e+00 1.360974216701e+00 1.350853200765e+00 1.340754664888e+00 1.330686754877e+00 1.320680957448e+00 1.310743686808e+00 1.300905077069e+00 1.291169979502e+00 1.281567075195e+00 1.272099851340e+00 1.262795483162e+00 1.253656312254e+00 1.244707994051e+00 1.235951952848e+00 1.227412340611e+00 1.219089893676e+00 1.211007298714e+00 1.203164826819e+00 1.195583751419e+00 1.188264087949e+00 1.181225755030e+00 1.174468703434e+00 1.168011554823e+00 1.161854363138e+00 1.156014503804e+00 1.150492274707e+00 1.145303842470e+00 1.140449859153e+00 1.135945300780e+00 1.131791249955e+00 1.128001485308e+00 1.124577559196e+00 1.121532015545e+00 1.118866875435e+00 1.116593375711e+00 1.114713963210e+00 1.113238458857e+00 1.112169653855e+00 1.111515816399e+00 1.111279981716e+00 1.111468731842e+00 1.112085247181e+00 1.113134239310e+00 1.114618804448e+00 1.116541468966e+00 1.118904943384e+00 1.121709234383e+00 1.124956354431e+00 1.128643455184e+00 1.132771536015e+00 1.137334569930e+00 1.142332239077e+00 1.147755043676e+00 1.153601071982e+00 1.159857105706e+00 1.166519405841e+00 1.173570855145e+00 1.181005709833e+00 1.188802851230e+00 1.196954416983e+00 1.205435270075e+00 1.214235382608e+00 1.223325670786e+00 1.232693960363e+00 1.242307380457e+00 1.252151693346e+00 1.262190487228e+00 1.272407605188e+00 1.282763425970e+00 1.293240078654e+00 1.303795149667e+00 1.314409322028e+00 1.325037894524e+00 1.335660438446e+00 1.346230559418e+00 1.356727121581e+00 1.367102722363e+00 1.377335995468e+00 1.387379302490e+00 1.397211593158e+00 1.406785843966e+00 1.416081928319e+00 1.425054350255e+00 1.433684559700e+00 1.441929538219e+00 1.449772986577e+00 1.457175318798e+00 1.464123151451e+00 1.470581251864e+00 1.476539771465e+00 1.481968673716e+00 1.486862177395e+00 1.491196159687e+00 1.494969308795e+00 1.498163957368e+00 1.500783485517e+00 1.502816988241e+00 1.504272515929e+00 1.505145913006e+00 1.505449525634e+00 1.505185458990e+00 1.504369498016e+00 1.503009243298e+00 1.501123244692e+00 1.498724085765e+00 1.495832487918e+00 1.492465421381e+00 1.488645130955e+00 1.484392294164e+00 1.479729998760e+00 1.474681898553e+00 1.469271245239e+00 1.463523922867e+00 1.457462703658e+00 1.451114976570e+00 1.444502461766e+00 1.437653405146e+00 1.430588092863e+00 1.423334951185e+00 1.415912359719e+00 1.408347315184e+00 1.400656759922e+00 1.392867826474e+00 1.384994318399e+00 1.377062240753e+00 1.369083033908e+00 1.361081257200e+00 1.353065972799e+00 1.345060126866e+00 1.337070473506e+00 1.329118252204e+00 1.321208036856e+00 1.313359326746e+00 1.305574686092e+00 1.297871888664e+00 1.290251688307e+00 1.282730185021e+00 1.275306537817e+00 1.267995251616e+00 1.260794111574e+00 1.253716124406e+00 1.246757919001e+00 1.239931111629e+00 1.233231382247e+00 1.226669069492e+00 1.220239096485e+00 1.213950637613e+00 1.207798032697e+00 1.201789402528e+00 1.195918656715e+00 1.190192968073e+00 1.184605947915e+00 1.179163920150e+00 1.173860308726e+00 1.168700680254e+00 1.163678362119e+00 1.158798247331e+00 1.154053638707e+00 1.149448831316e+00 1.144977158215e+00 1.140642384248e+00 1.136437912129e+00 1.132367036516e+00 1.128423255654e+00 1.124609446748e+00 1.120919217760e+00 1.117355074327e+00 1.113910738416e+00 1.110588383645e+00 1.107381842092e+00 1.104292989134e+00 1.101315756468e+00 1.098451749846e+00 1.095694984973e+00 1.093046822058e+00 1.090501341426e+00 1.088059677952e+00 1.085715954630e+00 1.083471098006e+00 1.081319250310e+00 1.079261144243e+00 1.077290917325e+00 1.075409121027e+00 1.073609864551e+00 1.071893529552e+00 1.070254174375e+00 1.068692021690e+00 1.067201058167e+00 1.065781358335e+00 1.064426818640e+00 1.063137376889e+00 1.061906823507e+00 1.060734972100e+00 1.059615494451e+00 1.058548094080e+00 1.057526315080e+00 1.056549767071e+00 1.055611861363e+00 1.054712132399e+00 1.053843857965e+00 1.053006519066e+00 1.052193264009e+00 1.051403545621e+00 1.050630392053e+00 1.049873257288e+00 1.049125064508e+00 1.048385302879e+00 1.047646812369e+00 1.046909156775e+00 1.046165122013e+00 1.045414392253e+00 1.044649736961e+00 1.043871013748e+00 1.043071022908e+00 1.042249857120e+00 1.041400405910e+00 1.040523068647e+00 1.039610895284e+00 1.038664675138e+00 1.037677704429e+00 1.036651259157e+00 1.035578984360e+00 1.034462754951e+00 1.033296686264e+00 1.032083382060e+00 1.030817570715e+00 1.029502734780e+00 1.028134382059e+00 1.026717046121e+00 1.025247206413e+00 1.023730644062e+00 1.022165029935e+00 1.020557614963e+00 1.018907509606e+00 1.017223682846e+00 1.015506960707e+00 1.013768303119e+00 1.012010553336e+00 1.010246959825e+00 1.008482727921e+00 1.006733845093e+00 1.005009046743e+00 1.003332244603e+00 1.001744350713e+00 1.000000000000e+00 1.000000000000e+00 1.000000000000e+00 1.000000000000e+00 