# vtk DataFile Version 3.0
Vortex Output
ASCII
DATASET STRUCTURED_POINTS
FIELD FieldData 2
TIME 1 1 double
5.000000
CYCLE 1 1 int
2000
DIMENSIONS 514 130 1
ORIGIN 0 0 0
SPACING 1 1 1
POINT_DATA 66820
SCALARS u double 1
LOOKUP_TABLE default
1.000081765804e+00 1.000081733334e+00 1.000328880518e+00 1.000740202536e+00 1.001318175903e+00 1.002061582675e+00 1.002973151780e+00 1.004051875142e+00 1.005300700776e+00 1.006718790390e+00 1.008309276260e+00 1.010071438423e+00 1.012008545667e+00 1.014119931824e+00 1.016408941590e+00 1.018874885341e+00 1.021521110653e+00 1.024346814941e+00 1.027355263738e+00 1.030545440453e+00 1.033920432696e+00 1.037478898468e+00 1.041223642089e+00 1.045152876258e+00 1.049269009373e+00 1.053569683089e+00 1.058056793049e+00 1.062727281837e+00 1.067582415321e+00 1.072618311208e+00 1.077835493346e+00 1.083229136438e+00 1.088798920703e+00 1.094538973661e+00 1.100448047513e+00 1.106519139189e+00 1.112750012678e+00 1.119132478710e+00 1.125663283976e+00 1.132333031856e+00 1.139137460043e+00 1.146065983555e+00 1.153113381721e+00 1.160267944330e+00 1.167523588224e+00 1.174867586842e+00 1.182293135907e+00 1.189786645801e+00 1.197340775038e+00 1.204941264009e+00 1.212580454164e+00 1.220243640738e+00 1.227923094947e+00 1.235603912489e+00 1.243278555601e+00 1.250932173578e+00 1.258557681335e+00 1.266140527974e+00 1.273674328494e+00 1.281145056772e+00 1.288547247159e+00 1.295867589146e+00 1.303101715698e+00 1.310237178405e+00 1.317270839302e+00 1.324191207511e+00 1.330996450726e+00 1.337676077260e+00 1.344229582087e+00 1.350647461826e+00 1.356930507973e+00 1.363070146759e+00 1.369068388758e+00 1.374917490778e+00 1.380620566222e+00 1.386170572371e+00 1.391571579566e+00 1.396817094467e+00 1.401911978333e+00 1.406850125205e+00 1.411637010219e+00 1.416266751283e+00 1.420745257560e+00 1.425066714059e+00 1.429237288297e+00 1.433251089317e+00 1.437114377180e+00 1.440821061147e+00 1.444377342338e+00 1.447776829948e+00 1.451025532351e+00 1.454116685071e+00 1.457055990083e+00 1.459836264467e+00 1.462462812048e+00 1.464928016847e+00 1.467236715841e+00 1.469380876081e+00 1.471364822681e+00 1.473180152326e+00 1.474830657035e+00 1.476307639262e+00 1.477614359978e+00 1.478741931182e+00 1.479693106827e+00 1.480458936810e+00 1.481041711502e+00 1.481432566510e+00 1.481633386117e+00 1.481635551677e+00 1.481440635213e+00 1.481040501312e+00 1.480436546678e+00 1.479621310109e+00 1.478596102858e+00 1.477354327996e+00 1.475897320577e+00 1.474219541951e+00 1.472322463106e+00 1.470201788677e+00 1.467859235111e+00 1.465291920784e+00 1.462501909963e+00 1.459487884634e+00 1.456252348226e+00 1.452795671531e+00 1.449120870897e+00 1.445230035714e+00 1.440463598123e+00 1.436154204782e+00 1.431643154824e+00 1.426937064205e+00 1.422039757000e+00 1.416959982047e+00 1.411701873278e+00 1.406276264710e+00 1.400687583735e+00 1.394948658322e+00 1.389064172221e+00 1.383048823293e+00 1.376907501059e+00 1.370656623329e+00 1.364301226167e+00 1.357859276628e+00 1.351335892918e+00 1.344750404365e+00 1.338107945047e+00 1.331429007971e+00 1.324718678474e+00 1.317998407683e+00 1.311273172617e+00 1.304565174172e+00 1.297879229331e+00 1.291238080926e+00 1.284646344092e+00 1.278127098603e+00 1.271684727085e+00 1.265342445431e+00 1.259104384812e+00 1.252993701078e+00 1.247014266666e+00 1.241188985653e+00 1.235521475536e+00 1.230034200399e+00 1.224730536478e+00 1.219632321629e+00 1.214742712531e+00 1.210082734544e+00 1.205655352017e+00 1.201480589124e+00 1.197561247373e+00 1.193916156001e+00 1.190547981272e+00 1.187474155798e+00 1.184697231011e+00 1.182233030195e+00 1.180083996582e+00 1.178264117292e+00 1.176775712638e+00 1.175630690878e+00 1.174831208171e+00 1.174386844100e+00 1.174299543114e+00 1.174576383838e+00 1.175219145140e+00 1.176232226923e+00 1.177617068578e+00 1.179375081334e+00 1.181507148618e+00 1.184011432272e+00 1.186888014544e+00 1.190131581929e+00 1.193741129491e+00 1.197707686854e+00 1.202028836586e+00 1.206691830871e+00 1.211692482268e+00 1.217014225151e+00 1.222650723650e+00 1.228581654339e+00 1.234798148504e+00 1.241276304771e+00 1.248004349067e+00 1.254955118846e+00 1.262113594126e+00 1.269449817827e+00 1.276945236712e+00 1.284567722744e+00 1.292294976548e+00 1.300093479266e+00 1.307937066926e+00 1.315791757438e+00 1.323627515554e+00 1.331410952246e+00 1.339108279492e+00 1.346687857619e+00 1.354112397823e+00 1.361353227633e+00 1.368369945155e+00 1.375138077358e+00 1.381614628062e+00 1.387780515961e+00 1.393590788767e+00 1.399032849947e+00 1.404060529648e+00 1.408668648349e+00 1.412810631557e+00 1.416489427301e+00 1.419658911411e+00 1.422330591317e+00 1.424459652535e+00 1.426066265694e+00 1.427107750493e+00 1.427612688324e+00 1.427541312080e+00 1.426930195848e+00 1.425743517637e+00 1.424025033739e+00 1.421743491684e+00 1.418948679994e+00 1.415614592253e+00 1.411795746348e+00 1.407472025450e+00 1.402701229504e+00 1.397469695515e+00 1.391836951372e+00 1.385796239789e+00 1.379407203908e+00 1.372670300838e+00 1.365643666084e+00 1.358335117289e+00 1.350799845022e+00 1.343054374023e+00 1.335161383113e+00 1.327242638382e+00 1.320137495604e+00 1.000000000000e+00 9.999979790331e-01 9.999979787438e-01 9.999979795279e-01 9.999979789930e-01 9.999979802928e-01 9.999979795293e-01 9.999979813468e-01 9.999979803729e-01 9.999979827064e-01 9.999979815404e-01 9.999979843826e-01 9.999979830408e-01 9.999979863770e-01 9.999979848718e-01 9.999979886799e-01 9.999979870192e-01 9.999979912697e-01 9.999979894570e-01 9.999979941144e-01 9.999979921490e-01 9.999979971735e-01 9.999979950524e-01 9.999980004018e-01 9.999979981205e-01 9.999980037532e-01 9.999980013080e-01 9.999980071846e-01 9.999980045741e-01 9.999980106604e-01 9.999980078867e-01 9.999980141550e-01 9.999980112251e-01 9.999980176549e-01 9.999980145810e-01 9.999980211600e-01 9.999980179589e-01 9.999980246820e-01 9.999980213745e-01 9.999980282432e-01 9.999980248526e-01 9.999980318728e-01 9.999980284231e-01 9.999980356034e-01 9.999980321171e-01 9.999980394667e-01 9.999980359632e-01 9.999980434895e-01 9.999980399832e-01 9.999980476904e-01 9.999980441894e-01 9.999980520774e-01 9.999980485832e-01 9.999980566468e-01 9.999980531541e-01 9.999980613835e-01 9.999980578812e-01 9.999980662628e-01 9.999980627354e-01 9.999980712530e-01 9.999980676824e-01 9.999980763192e-01 9.999980726869e-01 9.999980814272e-01 9.999980777164e-01 9.999980865477e-01 9.999980827451e-01 9.999980916592e-01 9.999980877569e-01 9.999980967509e-01 9.999980927472e-01 9.999981018236e-01 9.999980977231e-01 9.999981068894e-01 9.999981027029e-01 9.999981119703e-01 9.999981077137e-01 9.999981170951e-01 9.999981127876e-01 9.999981222953e-01 9.999981179582e-01 9.999981276012e-01 9.999981232554e-01 9.999981330372e-01 9.999981287019e-01 9.999981386178e-01 9.999981343091e-01 9.999981443446e-01 9.999981400746e-01 9.999981502045e-01 9.999981459813e-01 9.999981561690e-01 9.999981519974e-01 9.999981621958e-01 9.999981580780e-01 9.999981682306e-01 9.999981641686e-01 9.999981742112e-01 9.999981702080e-01 9.999981800713e-01 9.999981761336e-01 9.999981857456e-01 9.999981818850e-01 9.999981911734e-01 9.999981874083e-01 9.999981963027e-01 9.999981926589e-01 9.999982010927e-01 9.999981976035e-01 9.999982055153e-01 9.999982022205e-01 9.999982095548e-01 9.999982064995e-01 9.999982132065e-01 9.999982104391e-01 9.999982164750e-01 9.999982140443e-01 9.999982193704e-01 9.999982173233e-01 9.999982219055e-01 9.999982202843e-01 9.999982240930e-01 9.999982229334e-01 9.999982259438e-01 9.999982252743e-01 9.999982274672e-01 9.999982273082e-01 9.999982286656e-01 9.999982290107e-01 9.999996732644e-01 9.999996734851e-01 9.999996754436e-01 9.999996753273e-01 9.999996781420e-01 9.999996776893e-01 9.999996813186e-01 9.999996805162e-01 9.999996849055e-01 9.999996837419e-01 9.999996888314e-01 9.999996873011e-01 9.999996930296e-01 9.999996911354e-01 9.999996974438e-01 9.999996951974e-01 9.999997020303e-01 9.999996994525e-01 9.999997067598e-01 9.999997038796e-01 9.999997116166e-01 9.999997084697e-01 9.999997165967e-01 9.999997132225e-01 9.999997217040e-01 9.999997181437e-01 9.999997269465e-01 9.999997232398e-01 9.999997323319e-01 9.999997285150e-01 9.999997378641e-01 9.999997339670e-01 9.999997435397e-01 9.999997395853e-01 9.999997493464e-01 9.999997453499e-01 9.999997552626e-01 9.999997512319e-01 9.999997612585e-01 9.999997571948e-01 9.999997672984e-01 9.999997631982e-01 9.999997733435e-01 9.999997692006e-01 9.999997793564e-01 9.999997751636e-01 9.999997853039e-01 9.999997810558e-01 9.999997911615e-01 9.999997868554e-01 9.999997969147e-01 9.999997925522e-01 9.999998025612e-01 9.999997981486e-01 9.999998081104e-01 9.999998036582e-01 9.999998135824e-01 9.999998091046e-01 9.999998190050e-01 9.999998145175e-01 9.999998244104e-01 9.999998199297e-01 9.999998298313e-01 9.999998253722e-01 9.999998352973e-01 9.999998308713e-01 9.999998408305e-01 9.999998364448e-01 9.999998464439e-01 9.999998420999e-01 9.999998521390e-01 9.999998478326e-01 9.999998579062e-01 9.999998536283e-01 9.999998637258e-01 9.999998594632e-01 9.999998695705e-01 9.999998653073e-01 9.999998754084e-01 9.999998711282e-01 9.999998812073e-01 9.999998768949e-01 9.999998869381e-01 9.999998825813e-01 9.999998925786e-01 9.999998881700e-01 9.999998981160e-01 9.999998936534e-01 9.999999035486e-01 9.999998990358e-01 9.999999088860e-01 9.999999043319e-01 9.999999141481e-01 9.999999095659e-01 9.999999193625e-01 9.999999147684e-01 9.999999245617e-01 9.999999199727e-01 9.999999297791e-01 9.999999252111e-01 9.999999350450e-01 9.999999305112e-01 9.999999403833e-01 9.999999358922e-01 9.999999458083e-01 9.999999413632e-01 9.999999513233e-01 9.999999469214e-01 9.999999569198e-01 9.999999525527e-01 9.999999625781e-01 9.999999582322e-01 9.999999682691e-01 9.999999639270e-01 9.999999739562e-01 9.999999695972e-01 9.999999795966e-01 9.999999751964e-01 9.999999851389e-01 9.999999806650e-01 9.999999905083e-01 9.999999858999e-01 9.999999955483e-01 9.999999906479e-01 9.999999999020e-01 1.000000000000e+00 1.000000000000e+00 1.000000000000e+00 1.000000000000e+00 
1.000000000000e+00 1.000081733334e+00 1.000328880518e+00 1.000740202536e+00 1.001318175903e+00 1.002061582675e+00 1.002973151780e+00 1.004051875142e+00 1.005300700776e+00 1.006718790390e+00 1.008309276260e+00 1.010071438423e+00 1.012008545667e+00 1.014119931824e+00 1.016408941590e+00 1.018874885341e+00 1.021521110653e+00 1.024346814941e+00 1.027355263738e+00 1.030545440453e+00 1.033920432696e+00 1.037478898468e+00 1.041223642089e+00 1.045152876258e+00 1.049269009373e+00 1.053569683089e+00 1.058056793049e+00 1.062727281837e+00 1.067582415321e+00 1.072618311208e+00 1.077835493346e+00 1.083229136438e+00 1.088798920703e+00 1.094538973661e+00 1.100448047513e+00 1.106519139189e+00 1.112750012678e+00 1.119132478710e+00 1.125663283976e+00 1.132333031856e+00 1.139137460043e+00 1.146065983555e+00 1.153113381721e+00 1.160267944330e+00 1.167523588224e+00 1.174867586842e+00 1.182293135907e+00 1.189786645801e+00 1.197340775038e+00 1.204941264009e+00 1.212580454164e+00 1.220243640738e+00 1.227923094947e+00 1.235603912489e+00 1.243278555601e+00 1.250932173578e+00 1.258557681335e+00 1.266140527974e+00 1.273674328494e+00 1.281145056772e+00 1.288547247159e+00 1.295867589146e+00 1.303101715698e+00 1.310237178405e+00 1.317270839302e+00 1.324191207511e+00 1.330996450726e+00 1.337676077260e+00 1.344229582087e+00 1.350647461826e+00 1.356930507973e+00 1.363070146759e+00 1.369068388758e+00 1.374917490778e+00 1.380620566222e+00 1.386170572371e+00 1.391571579566e+00 1.396817094467e+00 1.401911978333e+00 1.406850125205e+00 1.411637010219e+00 1.416266751283e+00 1.420745257560e+00 1.425066714059e+00 1.429237288297e+00 1.433251089317e+00 1.437114377180e+00 1.440821061147e+00 1.444377342338e+00 1.447776829948e+00 1.451025532351e+00 1.454116685071e+00 1.457055990083e+00 1.459836264467e+00 1.462462812048e+00 1.464928016847e+00 1.467236715841e+00 1.469380876081e+00 1.471364822681e+00 1.473180152326e+00 1.474830657035e+00 1.476307639262e+00 1.477614359978e+00 1.478741931182e+00 1.479693106827e+00 1.480458936810e+00 1.481041711502e+00 1.481432566510e+00 1.481633386117e+00 1.481635551677e+00 1.481440635213e+00 1.481040501312e+00 1.480436546678e+00 1.479621310109e+00 1.478596102858e+00 1.477354327996e+00 1.475897320577e+00 1.474219541951e+00 1.472322463106e+00 1.470201788677e+00 1.467859235111e+00 1.465291920784e+00 1.462501909963e+00 1.459487884634e+00 1.456252348226e+00 1.452795671531e+00 1.449120870897e+00 1.445230035714e+00 1.440463598123e+00 1.436154204782e+00 1.431643154824e+00 1.426937064205e+00 1.422039757000e+00 1.416959982047e+00 1.411701873278e+00 1.406276264710e+00 1.400687583735e+00 1.394948658322e+00 1.389064172221e+00 1.383048823293e+00 1.376907501059e+00 1.370656623329e+00 1.364301226167e+00 1.357859276628e+00 1.351335892918e+00 1.344750404365e+00 1.338107945047e+00 1.331429007971e+00 1.324718678474e+00 1.317998407683e+00 1.311273172617e+00 1.304565174172e+00 1.297879229331e+00 1.291238080926e+00 1.284646344092e+00 1.278127098603e+00 1.271684727085e+00 1.265342445431e+00 1.259104384812e+00 1.252993701078e+00 1.247014266666e+00 1.241188985653e+00 1.235521475536e+00 1.230034200399e+00 1.224730536478e+00 1.219632321629e+00 1.214742712531e+00 1.210082734544e+00 1.205655352017e+00 1.201480589124e+00 1.197561247373e+00 1.193916156001e+00 1.190547981272e+00 1.187474155798e+00 1.184697231011e+00 1.182233030195e+00 1.180083996582e+00 1.178264117292e+00 1.176775712638e+00 1.175630690878e+00 1.174831208171e+00 1.174386844100e+00 1.174299543114e+00 1.174576383838e+00 1.175219145140e+00 1.176232226923e+00 1.177617068578e+00 1.179375081334e+00 1.181507148618e+00 1.184011432272e+00 1.186888014544e+00 1.190131581929e+00 1.193741129491e+00 1.197707686854e+00 1.202028836586e+00 1.206691830871e+00 1.211692482268e+00 1.217014225151e+00 1.222650723650e+00 1.228581654339e+00 1.234798148504e+00 1.241276304771e+00 1.248004349067e+00 1.254955118846e+00 1.262113594126e+00 1.269449817827e+00 1.276945236712e+00 1.284567722744e+00 1.292294976548e+00 1.300093479266e+00 1.307937066926e+00 1.315791757438e+00 1.323627515554e+00 1.331410952246e+00 1.339108279492e+00 1.346687857619e+00 1.354112397823e+00 1.361353227633e+00 1.368369945155e+00 1.375138077358e+00 1.381614628062e+00 1.387780515961e+00 1.393590788767e+00 1.399032849947e+00 1.404060529648e+00 1.408668648349e+00 1.412810631557e+00 1.416489427301e+00 1.419658911411e+00 1.422330591317e+00 1.424459652535e+00 1.426066265694e+00 1.427107750493e+00 1.427612688324e+00 1.427541312080e+00 1.426930195848e+00 1.425743517637e+00 1.424025033739e+00 1.421743491684e+00 1.418948679994e+00 1.415614592253e+00 1.411795746348e+00 1.407472025450e+00 1.402701229504e+00 1.397469695515e+00 1.391836951372e+00 1.385796239789e+00 1.379407203908e+00 1.372670300838e+00 1.365643666084e+00 1.358335117289e+00 1.350799845022e+00 1.343054374023e+00 1.335161383113e+00 1.327242638382e+00 1.320137495604e+00 1.000000000000e+00 9.999979790331e-01 9.999979787438e-01 9.999979795279e-01 9.999979789930e-01 9.999979802928e-01 9.999979795293e-01 9.999979813468e-01 9.999979803729e-01 9.999979827064e-01 9.999979815404e-01 9.999979843826e-01 9.999979830408e-01 9.999979863770e-01 9.999979848718e-01 9.999979886799e-01 9.999979870192e-01 9.999979912697e-01 9.999979894570e-01 9.999979941144e-01 9.999979921490e-01 9.999979971735e-01 9.999979950524e-01 9.999980004018e-01 9.999979981205e-01 9.999980037532e-01 9.999980013080e-01 9.999980071846e-01 9.999980045741e-01 9.999980106604e-01 9.999980078867e-01 9.999980141550e-01 9.999980112251e-01 9.999980176549e-01 9.999980145810e-01 9.999980211600e-01 9.999980179589e-01 9.999980246820e-01 9.999980213745e-01 9.999980282432e-01 9.999980248526e-01 9.999980318728e-01 9.999980284231e-01 9.999980356034e-01 9.999980321171e-01 9.999980394667e-01 9.999980359632e-01 9.999980434895e-01 9.999980399832e-01 9.999980476904e-01 9.999980441894e-01 9.999980520774e-01 9.999980485832e-01 9.999980566468e-01 9.999980531541e-01 9.999980613835e-01 9.999980578812e-01 9.999980662628e-01 9.999980627354e-01 9.999980712530e-01 9.999980676824e-01 9.999980763192e-01 9.999980726869e-01 9.999980814272e-01 9.999980777164e-01 9.999980865477e-01 9.999980827451e-01 9.999980916592e-01 9.999980877569e-01 9.999980967509e-01 9.999980927472e-01 9.999981018236e-01 9.999980977231e-01 9.999981068894e-01 9.999981027029e-01 9.999981119703e-01 9.999981077137e-01 9.999981170951e-01 9.999981127876e-01 9.999981222953e-01 9.999981179582e-01 9.999981276012e-01 9.999981232554e-01 9.999981330372e-01 9.999981287019e-01 9.999981386178e-01 9.999981343091e-01 9.999981443446e-01 9.999981400746e-01 9.999981502045e-01 9.999981459813e-01 9.999981561690e-01 9.999981519974e-01 9.999981621958e-01 9.999981580780e-01 9.999981682306e-01 9.999981641686e-01 9.999981742112e-01 9.999981702080e-01 9.999981800713e-01 9.999981761336e-01 9.999981857456e-01 9.999981818850e-01 9.999981911734e-01 9.999981874083e-01 9.999981963027e-01 9.999981926589e-01 9.999982010927e-01 9.999981976035e-01 9.999982055153e-01 9.999982022205e-01 9.999982095548e-01 9.999982064995e-01 9.999982132065e-01 9.999982104391e-01 9.999982164750e-01 9.999982140443e-01 9.999982193704e-01 9.999982173233e-01 9.999982219055e-01 9.999982202843e-01 9.999982240930e-01 9.999982229334e-01 9.999982259438e-01 9.999982252743e-01 9.999982274672e-01 9.999982273082e-01 9.999982286656e-01 9.999982290107e-01 9.999996732644e-01 9.999996734851e-01 9.999996754436e-01 9.999996753273e-01 9.999996781420e-01 9.999996776893e-01 9.999996813186e-01 9.999996805162e-01 9.999996849055e-01 9.999996837419e-01 9.999996888314e-01 9.999996873011e-01 9.999996930296e-01 9.999996911354e-01 9.999996974438e-01 9.999996951974e-01 9.999997020303e-01 9.999996994525e-01 9.999997067598e-01 9.999997038796e-01 9.999997116166e-01 9.999997084697e-01 9.999997165967e-01 9.999997132225e-01 9.999997217040e-01 9.999997181437e-01 9.999997269465e-01 9.999997232398e-01 9.999997323319e-01 9.999997285150e-01 9.999997378641e-01 9.999997339670e-01 9.999997435397e-01 9.999997395853e-01 9.999997493464e-01 9.999997453499e-01 9.999997552626e-01 9.999997512319e-01 9.999997612585e-01 9.999997571948e-01 9.999997672984e-01 9.999997631982e-01 9.999997733435e-01 9.999997692006e-01 9.999997793564e-01 9.999997751636e-01 9.999997853039e-01 9.999997810558e-01 9.999997911615e-01 9.999997868554e-01 9.999997969147e-01 9.999997925522e-01 9.999998025612e-01 9.999997981486e-01 9.999998081104e-01 9.999998036582e-01 9.999998135824e-01 9.999998091046e-01 9.999998190050e-01 9.999998145175e-01 9.999998244104e-01 9.999998199297e-01 9.999998298313e-01 9.999998253722e-01 9.999998352973e-01 9.999998308713e-01 9.999998408305e-01 9.999998364448e-01 9.999998464439e-01 9.999998420999e-01 9.999998521390e-01 9.999998478326e-01 9.999998579062e-01 9.999998536283e-01 9.999998637258e-01 9.999998594632e-01 9.999998695705e-01 9.999998653073e-01 9.999998754084e-01 9.999998711282e-01 9.999998812073e-01 9.999998768949e-01 9.999998869381e-01 9.999998825813e-01 9.999998925786e-01 9.999998881700e-01 9.999998981160e-01 9.999998936534e-01 9.999999035486e-01 9.999998990358e-01 9.999999088860e-01 9.999999043319e-01 9.999999141481e-01 9.999999095659e-01 9.999999193625e-01 9.999999147684e-01 9.999999245617e-01 9.999999199727e-01 9.999999297791e-01 9.999999252111e-01 9.999999350450e-01 9.999999305112e-01 9.999999403833e-01 9.999999358922e-01 9.999999458083e-01 9.999999413632e-01 9.999999513233e-01 9.999999469214e-01 9.999999569198e-01 9.999999525527e-01 9.999999625781e-01 9.999999582322e-01 9.999999682691e-01 9.999999639270e-01 9.999999739562e-01 9.999999695972e-01 9.999999795966e-01 9.999999751964e-01 9.999999851389e-01 9.999999806650e-01 9.999999905083e-01 9.999999858999e-01 9.999999955483e-01 9.999999906479e-01 9.999999999020e-01 1.000000000000e+00 1.000000000000e+00 1.000000000000e+00 1.000000000000e+00 
1.000000000000e+00 1.000082393709e+00 1.000328466614e+00 1.000740533851e+00 1.001317284319e+00 1.002061328889e+00 1.002971560925e+00 1.004050826865e+00 1.005298216485e+00 1.006716785281e+00 1.008305773075e+00 1.010068401814e+00 1.012004002385e+00 1.014115908372e+00 1.016403470390e+00 1.018870066501e+00 1.021514983335e+00 1.024341564121e+00 1.027348935812e+00 1.030540315911e+00 1.033914564860e+00 1.037474673088e+00 1.041219118000e+00 1.045150552934e+00 1.049266948241e+00 1.053570504075e+00 1.058058555306e+00 1.062732730257e+00 1.067589599486e+00 1.072630102782e+00 1.077849922182e+00 1.083249199630e+00 1.088822614979e+00 1.094569416736e+00 1.100483186121e+00 1.106562203247e+00 1.112798878571e+00 1.119190476643e+00 1.125728196402e+00 1.132408274289e+00 1.139220694778e+00 1.146160694164e+00 1.153217082427e+00 1.160384168374e+00 1.167649673432e+00 1.175007098069e+00 1.182443207387e+00 1.189950857950e+00 1.197516034138e+00 1.205131153713e+00 1.212781632937e+00 1.220459688482e+00 1.228150408390e+00 1.235846067384e+00 1.243531680006e+00 1.251199846037e+00 1.258835761747e+00 1.266432612028e+00 1.273976015723e+00 1.281459981147e+00 1.288870762086e+00 1.296203393518e+00 1.303444936116e+00 1.310591609011e+00 1.317631402559e+00 1.324561824696e+00 1.331371864325e+00 1.338060366911e+00 1.344617334192e+00 1.351042942882e+00 1.357328170481e+00 1.363474468095e+00 1.369473707007e+00 1.375328512420e+00 1.381031531237e+00 1.386586427911e+00 1.391986480664e+00 1.397236233452e+00 1.402329435742e+00 1.407271335902e+00 1.412055988743e+00 1.416689165432e+00 1.421165063345e+00 1.425489795979e+00 1.429657551270e+00 1.433674612066e+00 1.437535021859e+00 1.441245072403e+00 1.444798549610e+00 1.448201610068e+00 1.451447694488e+00 1.454542699445e+00 1.457479660934e+00 1.460264111953e+00 1.462888654050e+00 1.465358375799e+00 1.467665445269e+00 1.469814449355e+00 1.471797154481e+00 1.473617612601e+00 1.475267250626e+00 1.476749576141e+00 1.478055767594e+00 1.479188801817e+00 1.480139726437e+00 1.480911022591e+00 1.481493747866e+00 1.481889941612e+00 1.482090831158e+00 1.482098086735e+00 1.481903292995e+00 1.481507866338e+00 1.480903967803e+00 1.480092872100e+00 1.479067511561e+00 1.477829125770e+00 1.476371614162e+00 1.474696294400e+00 1.472798224359e+00 1.470678912613e+00 1.468334754890e+00 1.465767558592e+00 1.462975218727e+00 1.459959939749e+00 1.456721253195e+00 1.453261842108e+00 1.449582964078e+00 1.445687725521e+00 1.440915189558e+00 1.436599623565e+00 1.432083053137e+00 1.427369070916e+00 1.422465441323e+00 1.417376079481e+00 1.412110874227e+00 1.406674053025e+00 1.401077554402e+00 1.395325889887e+00 1.389432937429e+00 1.383403447785e+00 1.377253098868e+00 1.370986824824e+00 1.364621940842e+00 1.358163501691e+00 1.351630278679e+00 1.345027380879e+00 1.338374840707e+00 1.331677755156e+00 1.324957213642e+00 1.318218238187e+00 1.311482766513e+00 1.304755689450e+00 1.298059583536e+00 1.291399161314e+00 1.284797430687e+00 1.278258889602e+00 1.271806773708e+00 1.265445341725e+00 1.259197858143e+00 1.253068329738e+00 1.247079855753e+00 1.241236189898e+00 1.235560076291e+00 1.230055025144e+00 1.224743238540e+00 1.219628001930e+00 1.214730789610e+00 1.210054687996e+00 1.205620256803e+00 1.201430413248e+00 1.197504612124e+00 1.193845631731e+00 1.190471625354e+00 1.187385258434e+00 1.184603177047e+00 1.182127949775e+00 1.179974497774e+00 1.178145291847e+00 1.176653296417e+00 1.175500860528e+00 1.174698749128e+00 1.174249146507e+00 1.174160391852e+00 1.174434484651e+00 1.175077171257e+00 1.176090206373e+00 1.177476488287e+00 1.179237335927e+00 1.181372525564e+00 1.183882709123e+00 1.186764296023e+00 1.190016999860e+00 1.193633656566e+00 1.197612728414e+00 1.201943323645e+00 1.206622303106e+00 1.211634963657e+00 1.216976186860e+00 1.222627464985e+00 1.228581308131e+00 1.234815521396e+00 1.241319853790e+00 1.248068669932e+00 1.255048590241e+00 1.262230930200e+00 1.269598857599e+00 1.277121185098e+00 1.284777369239e+00 1.292534424745e+00 1.300367925048e+00 1.308243945761e+00 1.316134111432e+00 1.324004557382e+00 1.331823015545e+00 1.339556795859e+00 1.347169927232e+00 1.354632091314e+00 1.361903942407e+00 1.368958769871e+00 1.375754319512e+00 1.382268711969e+00 1.388457380017e+00 1.394304429279e+00 1.399763688562e+00 1.404826271239e+00 1.409445201719e+00 1.413619431119e+00 1.417302039572e+00 1.420500393733e+00 1.423168514309e+00 1.425322455885e+00 1.426918050500e+00 1.427979968539e+00 1.428466683490e+00 1.428411081069e+00 1.427775143658e+00 1.426599355299e+00 1.424850005305e+00 1.422574164768e+00 1.419743132069e+00 1.416409339927e+00 1.412549768985e+00 1.408220827712e+00 1.403405787450e+00 1.398163520278e+00 1.392484096972e+00 1.386427261214e+00 1.379990262293e+00 1.373232095292e+00 1.366157412106e+00 1.358822883132e+00 1.351240787787e+00 1.343465467396e+00 1.335528904275e+00 1.327579238865e+00 1.320440629270e+00 1.000000000000e+00 9.999979785944e-01 9.999979791516e-01 9.999979787045e-01 9.999979797524e-01 9.999979790495e-01 9.999979806008e-01 9.999979796701e-01 9.999979817333e-01 9.999979805991e-01 9.999979831734e-01 9.999979818560e-01 9.999979849321e-01 9.999979834474e-01 9.999979870078e-01 9.999979853669e-01 9.999979893861e-01 9.999979875952e-01 9.999979920407e-01 9.999979901012e-01 9.999979949352e-01 9.999979928451e-01 9.999979980261e-01 9.999979957813e-01 9.999980012668e-01 9.999979988627e-01 9.999980046118e-01 9.999980020454e-01 9.999980080208e-01 9.999980052918e-01 9.999980114619e-01 9.999980085746e-01 9.999980149151e-01 9.999980118785e-01 9.999980183728e-01 9.999980152012e-01 9.999980218407e-01 9.999980185528e-01 9.999980253357e-01 9.999980219535e-01 9.999980288838e-01 9.999980254310e-01 9.999980325162e-01 9.999980290162e-01 9.999980362657e-01 9.999980327397e-01 9.999980401619e-01 9.999980366269e-01 9.999980442282e-01 9.999980406955e-01 9.999980484781e-01 9.999980449526e-01 9.999980529139e-01 9.999980493936e-01 9.999980575263e-01 9.999980540029e-01 9.999980622952e-01 9.999980587551e-01 9.999980671918e-01 9.999980636179e-01 9.999980721824e-01 9.999980685560e-01 9.999980772318e-01 9.999980735349e-01 9.999980823076e-01 9.999980785249e-01 9.999980873839e-01 9.999980835045e-01 9.999980924441e-01 9.999980884631e-01 9.999980974831e-01 9.999980934020e-01 9.999981025075e-01 9.999980983342e-01 9.999981075348e-01 9.999981032829e-01 9.999981125908e-01 9.999981082784e-01 9.999981177068e-01 9.999981133546e-01 9.999981229146e-01 9.999981185445e-01 9.999981282430e-01 9.999981238757e-01 9.999981337124e-01 9.999981293665e-01 9.999981393324e-01 9.999981350227e-01 9.999981450985e-01 9.999981408359e-01 9.999981509909e-01 9.999981467828e-01 9.999981569755e-01 9.999981528260e-01 9.999981630048e-01 9.999981589167e-01 9.999981690215e-01 9.999981649980e-01 9.999981749619e-01 9.999981710086e-01 9.999981807611e-01 9.999981768876e-01 9.999981863565e-01 9.999981825786e-01 9.999981916926e-01 9.999981880327e-01 9.999981967234e-01 9.999981932117e-01 9.999982014150e-01 9.999981980885e-01 9.999982057459e-01 9.999982026474e-01 9.999982097063e-01 9.999982068828e-01 9.999982132964e-01 9.999982107964e-01 9.999982165233e-01 9.999982143944e-01 9.999982193980e-01 9.999982176841e-01 9.999982219322e-01 9.999982206715e-01 9.999982241361e-01 9.999982233591e-01 9.999982260172e-01 9.999982257481e-01 9.999982275899e-01 9.999982278727e-01 9.999982289785e-01 9.999996724211e-01 9.999996739913e-01 9.999996739895e-01 9.999996763943e-01 9.999996760203e-01 9.999996792254e-01 9.999996784786e-01 9.999996824458e-01 9.999996813246e-01 9.999996860056e-01 9.999996845101e-01 9.999996898511e-01 9.999996879867e-01 9.999996939328e-01 9.999996917121e-01 9.999996982102e-01 9.999996956539e-01 9.999997026544e-01 9.999996997906e-01 9.999997072484e-01 9.999997041117e-01 9.999997119864e-01 9.999997086159e-01 9.999997168708e-01 9.999997133075e-01 9.999997219084e-01 9.999997181930e-01 9.999997271073e-01 9.999997232770e-01 9.999997324720e-01 9.999997285590e-01 9.999997380010e-01 9.999997340305e-01 9.999997436840e-01 9.999997396737e-01 9.999997495015e-01 9.999997454612e-01 9.999997554250e-01 9.999997513576e-01 9.999997614190e-01 9.999997573218e-01 9.999997674437e-01 9.999997633105e-01 9.999997734589e-01 9.999997692819e-01 9.999997794275e-01 9.999997751995e-01 9.999997853195e-01 9.999997810358e-01 9.999997911145e-01 9.999997867742e-01 9.999997968038e-01 9.999997924105e-01 9.999998023910e-01 9.999997979531e-01 9.999998078911e-01 9.999998034209e-01 9.999998133283e-01 9.999998088411e-01 9.999998187333e-01 9.999998142455e-01 9.999998241391e-01 9.999998196664e-01 9.999998295771e-01 9.999998251329e-01 9.999998350735e-01 9.999998306671e-01 9.999998406459e-01 9.999998362814e-01 9.999998463012e-01 9.999998419773e-01 9.999998520351e-01 9.999998477448e-01 9.999998578324e-01 9.999998535642e-01 9.999998636688e-01 9.999998594078e-01 9.999998695141e-01 9.999998652439e-01 9.999998753356e-01 9.999998710401e-01 9.999998811021e-01 9.999998767675e-01 9.999998867875e-01 9.999998824039e-01 9.999998923743e-01 9.999998879367e-01 9.999998978552e-01 9.999998933646e-01 9.999999032344e-01 9.999998986973e-01 9.999999085271e-01 9.999999039549e-01 9.999999137576e-01 9.999999091654e-01 9.999999189566e-01 9.999999143612e-01 9.999999241577e-01 9.999999195760e-01 9.999999293935e-01 9.999999248401e-01 9.999999346913e-01 9.999999301774e-01 9.999999400706e-01 9.999999356022e-01 9.999999455404e-01 9.999999411176e-01 9.999999510980e-01 9.999999467152e-01 9.999999567291e-01 9.999999523751e-01 9.999999624090e-01 9.999999580683e-01 9.999999681050e-01 9.999999637587e-01 9.999999737781e-01 9.999999694049e-01 9.999999793842e-01 9.999999749594e-01 9.999999848711e-01 9.999999803616e-01 9.999999901632e-01 9.999999855074e-01 9.999999950887e-01 9.999999899511e-01 1.000000000000e+00 1.000000000000e+00 1.000000000000e+00 1.000000000000e+00 