# vtk DataFile Version 3.0
Vortex Output
ASCII
DATASET STRUCTURED_POINTS
FIELD FieldData 2
TIME 1 1 double
5.000000
CYCLE 1 1 int
2000
DIMENSIONS 514 130 1
ORIGIN 0 0 0
SPACING 1 1 1
POINT_DATA 66820
SCALARS u double 1
LOOKUP_TABLE default
1.000081865233e+00 1.000081865233e+00 1.000328909529e+00 1.000740448842e+00 1.001318370030e+00 1.002062077040e+00 1.002973705467e+00 1.004052867376e+00 1.005301917462e+00 1.006720635852e+00 1.008311561678e+00 1.010074591313e+00 1.012012400856e+00 1.014124938176e+00 1.016414956111e+00 1.018882376593e+00 1.021529956503e+00 1.024357502100e+00 1.027367689686e+00 1.030560108533e+00 1.033937258744e+00 1.037498400929e+00 1.041245753879e+00 1.045178129377e+00 1.049297352524e+00 1.053601660279e+00 1.058092367474e+00 1.062767007981e+00 1.067626269595e+00 1.072666857081e+00 1.077888719216e+00 1.083287613337e+00 1.088862647857e+00 1.094608528340e+00 1.100523438704e+00 1.106600949191e+00 1.112838259288e+00 1.119227748184e+00 1.125765602091e+00 1.132442987898e+00 1.139255087067e+00 1.146191873091e+00 1.153247573520e+00 1.160411031503e+00 1.167675616729e+00 1.175029150808e+00 1.182464287060e+00 1.189967978782e+00 1.197532346908e+00 1.205143669402e+00 1.212793754979e+00 1.220468431009e+00 1.228159440761e+00 1.235852406521e+00 1.243539267231e+00 1.251205693103e+00 1.258844080165e+00 1.266440392630e+00 1.273987730673e+00 1.281472577320e+00 1.288888955690e+00 1.296224058309e+00 1.303473009887e+00 1.310623858799e+00 1.317672961031e+00 1.324609316134e+00 1.331430587020e+00 1.338126766045e+00 1.344696843538e+00 1.351131793843e+00 1.357431902634e+00 1.363589067784e+00 1.369604791339e+00 1.375471796116e+00 1.381192682568e+00 1.386760869090e+00 1.392179906725e+00 1.397443759487e+00 1.402556760871e+00 1.407513260114e+00 1.412318193840e+00 1.416966135186e+00 1.421462441620e+00 1.425801756303e+00 1.429989679325e+00 1.434020784499e+00 1.437900746103e+00 1.441623949398e+00 1.445195988686e+00 1.448610966032e+00 1.451874259268e+00 1.454979620388e+00 1.457932094430e+00 1.460725046433e+00 1.463363094249e+00 1.465839210422e+00 1.468157514320e+00 1.470310612323e+00 1.472302077735e+00 1.474124208727e+00 1.475780008753e+00 1.477261556270e+00 1.478571284331e+00 1.479701168673e+00 1.480653093271e+00 1.481419073355e+00 1.482000484356e+00 1.482389543033e+00 1.482587170568e+00 1.482585959581e+00 1.482386468314e+00 1.481981918089e+00 1.481372636308e+00 1.480552676018e+00 1.479522218396e+00 1.478276350468e+00 1.476815210823e+00 1.475135124671e+00 1.473236292986e+00 1.471116472071e+00 1.468776026424e+00 1.466214318899e+00 1.463431969892e+00 1.460430100063e+00 1.457209664981e+00 1.453773664842e+00 1.450123453314e+00 1.446263998125e+00 1.442197095233e+00 1.437929731258e+00 1.433464168712e+00 1.428809426414e+00 1.423968237701e+00 1.418951628902e+00 1.413762789547e+00 1.408414692224e+00 1.402910951226e+00 1.397266390255e+00 1.391485003051e+00 1.385583339050e+00 1.379565715757e+00 1.373450257085e+00 1.367241542098e+00 1.360959096831e+00 1.354607697096e+00 1.348208082484e+00 1.341765161899e+00 1.335300688450e+00 1.328819645024e+00 1.322344591103e+00 1.315880531852e+00 1.309450622688e+00 1.303059848966e+00 1.296731751434e+00 1.290471264669e+00 1.284302106355e+00 1.278229141206e+00 1.272276059235e+00 1.266447648107e+00 1.260767370177e+00 1.255239940082e+00 1.249888397231e+00 1.244717397099e+00 1.239749364976e+00 1.234988918873e+00 1.230457681673e+00 1.226160260799e+00 1.222117289499e+00 1.218333393325e+00 1.214828027263e+00 1.211605861461e+00 1.208684979456e+00 1.206070115173e+00 1.203777778942e+00 1.201812774167e+00 1.200189822691e+00 1.198913782548e+00 1.197997353976e+00 1.197445411752e+00 1.197268396838e+00 1.197471199025e+00 1.198061880954e+00 1.199045386517e+00 1.200427131969e+00 1.202211955370e+00 1.204402313543e+00 1.207002779735e+00 1.210012546251e+00 1.213435741056e+00 1.217267986452e+00 1.221512760206e+00 1.226161814417e+00 1.231217752201e+00 1.236668171407e+00 1.242514565476e+00 1.248740124313e+00 1.255344998187e+00 1.262307762460e+00 1.269627006854e+00 1.277276551127e+00 1.285253239539e+00 1.293526079856e+00 1.302090035521e+00 1.310909349221e+00 1.319977034526e+00 1.329252736023e+00 1.338727529725e+00 1.348356762651e+00 1.358129679037e+00 1.367997771167e+00 1.377948658549e+00 1.387930566639e+00 1.397929800872e+00 1.407892048571e+00 1.417802711413e+00 1.427605796032e+00 1.437286299561e+00 1.446787514213e+00 1.456094603096e+00 1.465151191538e+00 1.473943226519e+00 1.482415761032e+00 1.490556161876e+00 1.498312011602e+00 1.505672717476e+00 1.512589457496e+00 1.519054248955e+00 1.525022850094e+00 1.530490370230e+00 1.535418006684e+00 1.539804319885e+00 1.543616636590e+00 1.546857172144e+00 1.549499866672e+00 1.551550612094e+00 1.552990210233e+00 1.553828055944e+00 1.554051830644e+00 1.553674191352e+00 1.552689777694e+00 1.551114263322e+00 1.548948882411e+00 1.546211713354e+00 1.542910122398e+00 1.539064042631e+00 1.534686456070e+00 1.529798593123e+00 1.524418466226e+00 1.518568041774e+00 1.512269721070e+00 1.505545656873e+00 1.498421961844e+00 1.490920453640e+00 1.483070259299e+00 1.474892362660e+00 1.466418146802e+00 1.457669388169e+00 1.448676277265e+00 1.439457896250e+00 1.430048653589e+00 1.420465273600e+00 1.410742292803e+00 1.400894548788e+00 1.390956483305e+00 1.380941007774e+00 1.370882079963e+00 1.360790666254e+00 1.350699913616e+00 1.340618887708e+00 1.330579668470e+00 1.320589521919e+00 1.310679270962e+00 1.300854529641e+00 1.291144733372e+00 1.281554027618e+00 1.272110381559e+00 1.262816680462e+00 1.253699391819e+00 1.244760363880e+00 1.236024561690e+00 1.227493025158e+00 1.219189242330e+00 1.211113670722e+00 1.203288364877e+00 1.195713416046e+00 1.188409499091e+00 1.181376539294e+00 1.174633888756e+00 1.168181486220e+00 1.162037414261e+00 1.156201779387e+00 1.150691437814e+00 1.145506789255e+00 1.140663490550e+00 1.136162327741e+00 1.132017763142e+00 1.128231026511e+00 1.124815362547e+00 1.121772462987e+00 1.119114298517e+00 1.116842999128e+00 1.114969168003e+00 1.113495307266e+00 1.112430523384e+00 1.111777590831e+00 1.111543974649e+00 1.111732641714e+00 1.112349328914e+00 1.113397080109e+00 1.114879618186e+00 1.116799750189e+00 1.119158847654e+00 1.121959176766e+00 1.125199427383e+00 1.128881015887e+00 1.132999624281e+00 1.137555512697e+00 1.142541048014e+00 1.147955045306e+00 1.153786286328e+00 1.160031886066e+00 1.166676826281e+00 1.173716314816e+00 1.181131388577e+00 1.188915199639e+00 1.197044775696e+00 1.205511128809e+00 1.214287299478e+00 1.223362141784e+00 1.232704819436e+00 1.242302076037e+00 1.252119397037e+00 1.262141526835e+00 1.272330558461e+00 1.282669411253e+00 1.293117158897e+00 1.303655133566e+00 1.314239851086e+00 1.324851360751e+00 1.335444172224e+00 1.345997426014e+00 1.356464268507e+00 1.366823377666e+00 1.377027268864e+00 1.387054675033e+00 1.396858295417e+00 1.406417500631e+00 1.415686057905e+00 1.424644610618e+00 1.433248926255e+00 1.441481588139e+00 1.449301315545e+00 1.456693303461e+00 1.463620157796e+00 1.470070327655e+00 1.476011182128e+00 1.481434998989e+00 1.486314683156e+00 1.490646805468e+00 1.494410426519e+00 1.497606718042e+00 1.500221309046e+00 1.502260067965e+00 1.503715329606e+00 1.504597464636e+00 1.504905274846e+00 1.504653029871e+00 1.503845323785e+00 1.502499534806e+00 1.500625446134e+00 1.498242941265e+00 1.495366432524e+00 1.492017692212e+00 1.488215121862e+00 1.483981724421e+00 1.479339185975e+00 1.474311066817e+00 1.468921600457e+00 1.463194248694e+00 1.457155057829e+00 1.450826783695e+00 1.444236584851e+00 1.437405977272e+00 1.430362590711e+00 1.423126258777e+00 1.415724518856e+00 1.408175181030e+00 1.400505214895e+00 1.392730169847e+00 1.384876064332e+00 1.376956050278e+00 1.368994901977e+00 1.361003328967e+00 1.353004652748e+00 1.345007175454e+00 1.337032632546e+00 1.329087019674e+00 1.321190417720e+00 1.313346667954e+00 1.305574181471e+00 1.297874833966e+00 1.290265393688e+00 1.282745982793e+00 1.275331785363e+00 1.268021393394e+00 1.260828487982e+00 1.253750355658e+00 1.246799270373e+00 1.239971431149e+00 1.233277808888e+00 1.226713720223e+00 1.220288940311e+00 1.213998091386e+00 1.207849859579e+00 1.201838340849e+00 1.195971235696e+00 1.190242260686e+00 1.184658228875e+00 1.179212602741e+00 1.173911399682e+00 1.168747932309e+00 1.163727507058e+00 1.158843370894e+00 1.154100196575e+00 1.149491231134e+00 1.145020583468e+00 1.140681549620e+00 1.136477737106e+00 1.132402525021e+00 1.128459074899e+00 1.124640869930e+00 1.120950674344e+00 1.117382085343e+00 1.113937512233e+00 1.110610666837e+00 1.107403640092e+00 1.104310251448e+00 1.101332304739e+00 1.098463714020e+00 1.095706022570e+00 1.093053221464e+00 1.090506615850e+00 1.088060252984e+00 1.085715218822e+00 1.083465593892e+00 1.081312261048e+00 1.079249310160e+00 1.077277434871e+00 1.075390710375e+00 1.073589653435e+00 1.071868301263e+00 1.070227005147e+00 1.068659742429e+00 1.067166710001e+00 1.065741805463e+00 1.064385082650e+00 1.063090342080e+00 1.061857506667e+00 1.060680265509e+00 1.059558424046e+00 1.058485549017e+00 1.057461343645e+00 1.056479245169e+00 1.055538872136e+00 1.054633529326e+00 1.053762770927e+00 1.052919770894e+00 1.052104042645e+00 1.051308636012e+00 1.050533051030e+00 1.049770225710e+00 1.049019678492e+00 1.048274254097e+00 1.047533526234e+00 1.046790271865e+00 1.046044162706e+00 1.045287941429e+00 1.044521427315e+00 1.043737371285e+00 1.042935797711e+00 1.042109518714e+00 1.041258830598e+00 1.040376671614e+00 1.039463687698e+00 1.038513021919e+00 1.037525760147e+00 1.036495344679e+00 1.035423406159e+00 1.034303798371e+00 1.033138818218e+00 1.031922863349e+00 1.030659037278e+00 1.029342436346e+00 1.027977132156e+00 1.026559099260e+00 1.025093562062e+00 1.023577579441e+00 1.022017738192e+00 1.020412415467e+00 1.018769795692e+00 1.017089836086e+00 1.015382578951e+00 1.013649849546e+00 1.011903831154e+00 1.010148530779e+00 1.008398595741e+00 1.006660679828e+00 1.004953026563e+00 1.003290076338e+00 1.001721945891e+00 1.000000000000e+00 1.000000000000e+00 1.000000000000e+00 1.000000000000e+00 
1.000000000000e+00 1.000081865233e+00 1.000328909529e+00 1.000740448842e+00 1.001318370030e+00 1.002062077040e+00 1.002973705467e+00 1.004052867376e+00 1.005301917462e+00 1.006720635852e+00 1.008311561678e+00 1.010074591313e+00 1.012012400856e+00 1.014124938176e+00 1.016414956111e+00 1.018882376593e+00 1.021529956503e+00 1.024357502100e+00 1.027367689686e+00 1.030560108533e+00 1.033937258744e+00 1.037498400929e+00 1.041245753879e+00 1.045178129377e+00 1.049297352524e+00 1.053601660279e+00 1.058092367474e+00 1.062767007981e+00 1.067626269595e+00 1.072666857081e+00 1.077888719216e+00 1.083287613337e+00 1.088862647857e+00 1.094608528340e+00 1.100523438704e+00 1.106600949191e+00 1.112838259288e+00 1.119227748184e+00 1.125765602091e+00 1.132442987898e+00 1.139255087067e+00 1.146191873091e+00 1.153247573520e+00 1.160411031503e+00 1.167675616729e+00 1.175029150808e+00 1.182464287060e+00 1.189967978782e+00 1.197532346908e+00 1.205143669402e+00 1.212793754979e+00 1.220468431009e+00 1.228159440761e+00 1.235852406521e+00 1.243539267231e+00 1.251205693103e+00 1.258844080165e+00 1.266440392630e+00 1.273987730673e+00 1.281472577320e+00 1.288888955690e+00 1.296224058309e+00 1.303473009887e+00 1.310623858799e+00 1.317672961031e+00 1.324609316134e+00 1.331430587020e+00 1.338126766045e+00 1.344696843538e+00 1.351131793843e+00 1.357431902634e+00 1.363589067784e+00 1.369604791339e+00 1.375471796116e+00 1.381192682568e+00 1.386760869090e+00 1.392179906725e+00 1.397443759487e+00 1.402556760871e+00 1.407513260114e+00 1.412318193840e+00 1.416966135186e+00 1.421462441620e+00 1.425801756303e+00 1.429989679325e+00 1.434020784499e+00 1.437900746103e+00 1.441623949398e+00 1.445195988686e+00 1.448610966032e+00 1.451874259268e+00 1.454979620388e+00 1.457932094430e+00 1.460725046433e+00 1.463363094249e+00 1.465839210422e+00 1.468157514320e+00 1.470310612323e+00 1.472302077735e+00 1.474124208727e+00 1.475780008753e+00 1.477261556270e+00 1.478571284331e+00 1.479701168673e+00 1.480653093271e+00 1.481419073355e+00 1.482000484356e+00 1.482389543033e+00 1.482587170568e+00 1.482585959581e+00 1.482386468314e+00 1.481981918089e+00 1.481372636308e+00 1.480552676018e+00 1.479522218396e+00 1.478276350468e+00 1.476815210823e+00 1.475135124671e+00 1.473236292986e+00 1.471116472071e+00 1.468776026424e+00 1.466214318899e+00 1.463431969892e+00 1.460430100063e+00 1.457209664981e+00 1.453773664842e+00 1.450123453314e+00 1.446263998125e+00 1.442197095233e+00 1.437929731258e+00 1.433464168712e+00 1.428809426414e+00 1.423968237701e+00 1.418951628902e+00 1.413762789547e+00 1.408414692224e+00 1.402910951226e+00 1.397266390255e+00 1.391485003051e+00 1.385583339050e+00 1.379565715757e+00 1.373450257085e+00 1.367241542098e+00 1.360959096831e+00 1.354607697096e+00 1.348208082484e+00 1.341765161899e+00 1.335300688450e+00 1.328819645024e+00 1.322344591103e+00 1.315880531852e+00 1.309450622688e+00 1.303059848966e+00 1.296731751434e+00 1.290471264669e+00 1.284302106355e+00 1.278229141206e+00 1.272276059235e+00 1.266447648107e+00 1.260767370177e+00 1.255239940082e+00 1.249888397231e+00 1.244717397099e+00 1.239749364976e+00 1.234988918873e+00 1.230457681673e+00 1.226160260799e+00 1.222117289499e+00 1.218333393325e+00 1.214828027263e+00 1.211605861461e+00 1.208684979456e+00 1.206070115173e+00 1.203777778942e+00 1.201812774167e+00 1.200189822691e+00 1.198913782548e+00 1.197997353976e+00 1.197445411752e+00 1.197268396838e+00 1.197471199025e+00 1.198061880954e+00 1.199045386517e+00 1.200427131969e+00 1.202211955370e+00 1.204402313543e+00 1.207002779735e+00 1.210012546251e+00 1.213435741056e+00 1.217267986452e+00 1.221512760206e+00 1.226161814417e+00 1.231217752201e+00 1.236668171407e+00 1.242514565476e+00 1.248740124313e+00 1.255344998187e+00 1.262307762460e+00 1.269627006854e+00 1.277276551127e+00 1.285253239539e+00 1.293526079856e+00 1.302090035521e+00 1.310909349221e+00 1.319977034526e+00 1.329252736023e+00 1.338727529725e+00 1.348356762651e+00 1.358129679037e+00 1.367997771167e+00 1.377948658549e+00 1.387930566639e+00 1.397929800872e+00 1.407892048571e+00 1.417802711413e+00 1.427605796032e+00 1.437286299561e+00 1.446787514213e+00 1.456094603096e+00 1.465151191538e+00 1.473943226519e+00 1.482415761032e+00 1.490556161876e+00 1.498312011602e+00 1.505672717476e+00 1.512589457496e+00 1.519054248955e+00 1.525022850094e+00 1.530490370230e+00 1.535418006684e+00 1.539804319885e+00 1.543616636590e+00 1.546857172144e+00 1.549499866672e+00 1.551550612094e+00 1.552990210233e+00 1.553828055944e+00 1.554051830644e+00 1.553674191352e+00 1.552689777694e+00 1.551114263322e+00 1.548948882411e+00 1.546211713354e+00 1.542910122398e+00 1.539064042631e+00 1.534686456070e+00 1.529798593123e+00 1.524418466226e+00 1.518568041774e+00 1.512269721070e+00 1.505545656873e+00 1.498421961844e+00 1.490920453640e+00 1.483070259299e+00 1.474892362660e+00 1.466418146802e+00 1.457669388169e+00 1.448676277265e+00 1.439457896250e+00 1.430048653589e+00 1.420465273600e+00 1.410742292803e+00 1.400894548788e+00 1.390956483305e+00 1.380941007774e+00 1.370882079963e+00 1.360790666254e+00 1.350699913616e+00 1.340618887708e+00 1.330579668470e+00 1.320589521919e+00 1.310679270962e+00 1.300854529641e+00 1.291144733372e+00 1.281554027618e+00 1.272110381559e+00 1.262816680462e+00 1.253699391819e+00 1.244760363880e+00 1.236024561690e+00 1.227493025158e+00 1.219189242330e+00 1.211113670722e+00 1.203288364877e+00 1.195713416046e+00 1.188409499091e+00 1.181376539294e+00 1.174633888756e+00 1.168181486220e+00 1.162037414261e+00 1.156201779387e+00 1.150691437814e+00 1.145506789255e+00 1.140663490550e+00 1.136162327741e+00 1.132017763142e+00 1.128231026511e+00 1.124815362547e+00 1.121772462987e+00 1.119114298517e+00 1.116842999128e+00 1.114969168003e+00 1.113495307266e+00 1.112430523384e+00 1.111777590831e+00 1.111543974649e+00 1.111732641714e+00 1.112349328914e+00 1.113397080109e+00 1.114879618186e+00 1.116799750189e+00 1.119158847654e+00 1.121959176766e+00 1.125199427383e+00 1.128881015887e+00 1.132999624281e+00 1.137555512697e+00 1.142541048014e+00 1.147955045306e+00 1.153786286328e+00 1.160031886066e+00 1.166676826281e+00 1.173716314816e+00 1.181131388577e+00 1.188915199639e+00 1.197044775696e+00 1.205511128809e+00 1.214287299478e+00 1.223362141784e+00 1.232704819436e+00 1.242302076037e+00 1.252119397037e+00 1.262141526835e+00 1.272330558461e+00 1.282669411253e+00 1.293117158897e+00 1.303655133566e+00 1.314239851086e+00 1.324851360751e+00 1.335444172224e+00 1.345997426014e+00 1.356464268507e+00 1.366823377666e+00 1.377027268864e+00 1.387054675033e+00 1.396858295417e+00 1.406417500631e+00 1.415686057905e+00 1.424644610618e+00 1.433248926255e+00 1.441481588139e+00 1.449301315545e+00 1.456693303461e+00 1.463620157796e+00 1.470070327655e+00 1.476011182128e+00 1.481434998989e+00 1.486314683156e+00 1.490646805468e+00 1.494410426519e+00 1.497606718042e+00 1.500221309046e+00 1.502260067965e+00 1.503715329606e+00 1.504597464636e+00 1.504905274846e+00 1.504653029871e+00 1.503845323785e+00 1.502499534806e+00 1.500625446134e+00 1.498242941265e+00 1.495366432524e+00 1.492017692212e+00 1.488215121862e+00 1.483981724421e+00 1.479339185975e+00 1.474311066817e+00 1.468921600457e+00 1.463194248694e+00 1.457155057829e+00 1.450826783695e+00 1.444236584851e+00 1.437405977272e+00 1.430362590711e+00 1.423126258777e+00 1.415724518856e+00 1.408175181030e+00 1.400505214895e+00 1.392730169847e+00 1.384876064332e+00 1.376956050278e+00 1.368994901977e+00 1.361003328967e+00 1.353004652748e+00 1.345007175454e+00 1.337032632546e+00 1.329087019674e+00 1.321190417720e+00 1.313346667954e+00 1.305574181471e+00 1.297874833966e+00 1.290265393688e+00 1.282745982793e+00 1.275331785363e+00 1.268021393394e+00 1.260828487982e+00 1.253750355658e+00 1.246799270373e+00 1.239971431149e+00 1.233277808888e+00 1.226713720223e+00 1.220288940311e+00 1.213998091386e+00 1.207849859579e+00 1.201838340849e+00 1.195971235696e+00 1.190242260686e+00 1.184658228875e+00 1.179212602741e+00 1.173911399682e+00 1.168747932309e+00 1.163727507058e+00 1.158843370894e+00 1.154100196575e+00 1.149491231134e+00 1.145020583468e+00 1.140681549620e+00 1.136477737106e+00 1.132402525021e+00 1.128459074899e+00 1.124640869930e+00 1.120950674344e+00 1.117382085343e+00 1.113937512233e+00 1.110610666837e+00 1.107403640092e+00 1.104310251448e+00 1.101332304739e+00 1.098463714020e+00 1.095706022570e+00 1.093053221464e+00 1.090506615850e+00 1.088060252984e+00 1.085715218822e+00 1.083465593892e+00 1.081312261048e+00 1.079249310160e+00 1.077277434871e+00 1.075390710375e+00 1.073589653435e+00 1.071868301263e+00 1.070227005147e+00 1.068659742429e+00 1.067166710001e+00 1.065741805463e+00 1.064385082650e+00 1.063090342080e+00 1.061857506667e+00 1.060680265509e+00 1.059558424046e+00 1.058485549017e+00 1.057461343645e+00 1.056479245169e+00 1.055538872136e+00 1.054633529326e+00 1.053762770927e+00 1.052919770894e+00 1.052104042645e+00 1.051308636012e+00 1.050533051030e+00 1.049770225710e+00 1.049019678492e+00 1.048274254097e+00 1.047533526234e+00 1.046790271865e+00 1.046044162706e+00 1.045287941429e+00 1.044521427315e+00 1.043737371285e+00 1.042935797711e+00 1.042109518714e+00 1.041258830598e+00 1.040376671614e+00 1.039463687698e+00 1.038513021919e+00 1.037525760147e+00 1.036495344679e+00 1.035423406159e+00 1.034303798371e+00 1.033138818218e+00 1.031922863349e+00 1.030659037278e+00 1.029342436346e+00 1.027977132156e+00 1.026559099260e+00 1.025093562062e+00 1.023577579441e+00 1.022017738192e+00 1.020412415467e+00 1.018769795692e+00 1.017089836086e+00 1.015382578951e+00 1.013649849546e+00 1.011903831154e+00 1.010148530779e+00 1.008398595741e+00 1.006660679828e+00 1.004953026563e+00 1.003290076338e+00 1.001721945891e+00 1.000000000000e+00 1.000000000000e+00 1.000000000000e+00 1.000000000000e+00 
1.000000000000e+00 1.000082305836e+00 1.000328586760e+00 1.000740579532e+00 1.001317589407e+00 1.002061634882e+00 1.002972231605e+00 1.004051633655e+00 1.005299550747e+00 1.006718445486e+00 1.008308175272e+00 1.010071369244e+00 1.012007973513e+00 1.014120729438e+00 1.016409600406e+00 1.018877373255e+00 1.021523944759e+00 1.024352068253e+00 1.027361477962e+00 1.030554803106e+00 1.033931508257e+00 1.037493997432e+00 1.041241348749e+00 1.045175631256e+00 1.049295412341e+00 1.053602310246e+00 1.058094252946e+00 1.062772289490e+00 1.067633579390e+00 1.072678486047e+00 1.077903276100e+00 1.083307518258e+00 1.088886472441e+00 1.094638817335e+00 1.100558709543e+00 1.106643863029e+00 1.112887258817e+00 1.119285599233e+00 1.125830648857e+00 1.132518086069e+00 1.139338455972e+00 1.146286441176e+00 1.153351407201e+00 1.160527113732e+00 1.167801832576e+00 1.175168519795e+00 1.182614485643e+00 1.190132047096e+00 1.197707728382e+00 1.205333412542e+00 1.212995050301e+00 1.220684328459e+00 1.228386864037e+00 1.236094406639e+00 1.243792494189e+00 1.251473205916e+00 1.259122255747e+00 1.266732312295e+00 1.274289506194e+00 1.281787333339e+00 1.289212553294e+00 1.296559691930e+00 1.303816309540e+00 1.310978118764e+00 1.318033603301e+00 1.324979766347e+00 1.331806083804e+00 1.338510897104e+00 1.345084688653e+00 1.351527130606e+00 1.357829674952e+00 1.363993266268e+00 1.370010244482e+00 1.375882724651e+00 1.381603817076e+00 1.387176670590e+00 1.392595022495e+00 1.397862893600e+00 1.402974489491e+00 1.407934525620e+00 1.412737511854e+00 1.417388674262e+00 1.421882666748e+00 1.426225042993e+00 1.430410452217e+00 1.434444600095e+00 1.438322000318e+00 1.442048347400e+00 1.445617911508e+00 1.449036229177e+00 1.452297245635e+00 1.455406211863e+00 1.458356695968e+00 1.461153557111e+00 1.463789965072e+00 1.466270303686e+00 1.468587355081e+00 1.470744967900e+00 1.472735579321e+00 1.474562466951e+00 1.476217797091e+00 1.477704264296e+00 1.479013867930e+00 1.480148730471e+00 1.481100815633e+00 1.481871706099e+00 1.482453484887e+00 1.482847245796e+00 1.483045365373e+00 1.483048518027e+00 1.482849576396e+00 1.482448907727e+00 1.481840113347e+00 1.481023360345e+00 1.479993186198e+00 1.478749659147e+00 1.477288460006e+00 1.475609664993e+00 1.473710298752e+00 1.471590550703e+00 1.469248975360e+00 1.466685974250e+00 1.463901796618e+00 1.460897143858e+00 1.457674097545e+00 1.454233731727e+00 1.450580065805e+00 1.446714601374e+00 1.442643365420e+00 1.438368322244e+00 1.433897538272e+00 1.429233455276e+00 1.424386172415e+00 1.419358603842e+00 1.414162836975e+00 1.408802235038e+00 1.403290793609e+00 1.397632286039e+00 1.391842503608e+00 1.385925578514e+00 1.379898957052e+00 1.373767070421e+00 1.367548855699e+00 1.361248978651e+00 1.354887684298e+00 1.348469807865e+00 1.342016705781e+00 1.335533320601e+00 1.329041914561e+00 1.322547481563e+00 1.316072979124e+00 1.309623405235e+00 1.303222200757e+00 1.296874331106e+00 1.290603509900e+00 1.284414645058e+00 1.278331515695e+00 1.272358959429e+00 1.266520618137e+00 1.260821258103e+00 1.255284186196e+00 1.249914107057e+00 1.244733799471e+00 1.239747925163e+00 1.234978545530e+00 1.230430304807e+00 1.226124359948e+00 1.222065366846e+00 1.218273391086e+00 1.214753129413e+00 1.211523366512e+00 1.208588864754e+00 1.205966932336e+00 1.203662412219e+00 1.201690930332e+00 1.200057409220e+00 1.198775572555e+00 1.197850401122e+00 1.197293485014e+00 1.197109834618e+00 1.197308703410e+00 1.197895147354e+00 1.198875903357e+00 1.200256005010e+00 1.202039382546e+00 1.204230899818e+00 1.206831375123e+00 1.209845331391e+00 1.213270167554e+00 1.217109869066e+00 1.221358109425e+00 1.226018116992e+00 1.231079543727e+00 1.236544625201e+00 1.242398718302e+00 1.248642824654e+00 1.255257770749e+00 1.262243091216e+00 1.269574902919e+00 1.277251064355e+00 1.285242878789e+00 1.293546360501e+00 1.302127989778e+00 1.310981827070e+00 1.320069633070e+00 1.329383479684e+00 1.338880639775e+00 1.348551250984e+00 1.358348470045e+00 1.368260654029e+00 1.378237361293e+00 1.388265426892e+00 1.398291474070e+00 1.408301178725e+00 1.418239029667e+00 1.428090003510e+00 1.437797376631e+00 1.447345968970e+00 1.456678863737e+00 1.465781328514e+00 1.474597338507e+00 1.483113247893e+00 1.491275037381e+00 1.499070789466e+00 1.506449590019e+00 1.513401859172e+00 1.519880828865e+00 1.525879797019e+00 1.531357078122e+00 1.536309282328e+00 1.540700594347e+00 1.544531230800e+00 1.547771844647e+00 1.550426382903e+00 1.552472341398e+00 1.553917331382e+00 1.554745829195e+00 1.554968875208e+00 1.554577909308e+00 1.553587134151e+00 1.551994784961e+00 1.549817753433e+00 1.547060667946e+00 1.543742566840e+00 1.539873984429e+00 1.535475549977e+00 1.530563144134e+00 1.525158422470e+00 1.519281987665e+00 1.512955960122e+00 1.506204994239e+00 1.499051135245e+00 1.491522397283e+00 1.483640259184e+00 1.475435444241e+00 1.466928581643e+00 1.458152331964e+00 1.449125951067e+00 1.439881893951e+00 1.430438849701e+00 1.420831297839e+00 1.411074969652e+00 1.401204563152e+00 1.391233937802e+00 1.381197471285e+00 1.371107075019e+00 1.360996439886e+00 1.350875542304e+00 1.340777097026e+00 1.330709221037e+00 1.320703433210e+00 1.310766118582e+00 1.300927443775e+00 1.291192230504e+00 1.281589192665e+00 1.272121787478e+00 1.262817223225e+00 1.253677811095e+00 1.244729239788e+00 1.235972902756e+00 1.227432985406e+00 1.219110192793e+00 1.211027245178e+00 1.203184381947e+00 1.195602910244e+00 1.188282813391e+00 1.181244043836e+00 1.174486519855e+00 1.168028897037e+00 1.161871196474e+00 1.156030827618e+00 1.150508055188e+00 1.145319079926e+00 1.140464520451e+00 1.135959387001e+00 1.131804728511e+00 1.128014357925e+00 1.124589793748e+00 1.121543614336e+00 1.118877806787e+00 1.116603642501e+00 1.114723534254e+00 1.113247337672e+00 1.112177809854e+00 1.111523253846e+00 1.111286670735e+00 1.111474677546e+00 1.112090420531e+00 1.113138646521e+00 1.114622417707e+00 1.116544296069e+00 1.118906958204e+00 1.121710446812e+00 1.124956740505e+00 1.128643027433e+00 1.132770273105e+00 1.137332487575e+00 1.142329319007e+00 1.147751305314e+00 1.153596500489e+00 1.159851724687e+00 1.166513204162e+00 1.173563860989e+00 1.180997915930e+00 1.188794290645e+00 1.196945086351e+00 1.205425207546e+00 1.214224588648e+00 1.223314188737e+00 1.232681794347e+00 1.242294579015e+00 1.252138264012e+00 1.262176483654e+00 1.272393038026e+00 1.282748353798e+00 1.293224514920e+00 1.303779157583e+00 1.314392917506e+00 1.325021144977e+00 1.335643361936e+00 1.346213226961e+00 1.356709553088e+00 1.367084991649e+00 1.377318124030e+00 1.387361365891e+00 1.397193614267e+00 1.406767898765e+00 1.416064040908e+00 1.425036595400e+00 1.433666962692e+00 1.441912170654e+00 1.449755875034e+00 1.457158529437e+00 1.464106712422e+00 1.470565221331e+00 1.476524179657e+00 1.481953567989e+00 1.486847590848e+00 1.491182125868e+00 1.494955864781e+00 1.498151119793e+00 1.500771296926e+00 1.502805445261e+00 1.504261668509e+00 1.505135734876e+00 1.505440076693e+00 1.505176687767e+00 1.504361477609e+00 1.503001894835e+00 1.501116657424e+00 1.498718151124e+00 1.495827314229e+00 1.492460868376e+00 1.488641328901e+00 1.484389069495e+00 1.479727506402e+00 1.474679930542e+00 1.469269983609e+00 1.463523124697e+00 1.457462579875e+00 1.451115247842e+00 1.444503361294e+00 1.437654579542e+00 1.430589649290e+00 1.423336382871e+00 1.415913647297e+00 1.408348885903e+00 1.400658797206e+00 1.392870025976e+00 1.384996917395e+00 1.377064981192e+00 1.369086121740e+00 1.361084465978e+00 1.353069476632e+00 1.345063730858e+00 1.337074322122e+00 1.329122181301e+00 1.321212163479e+00 1.313363515877e+00 1.305579029677e+00 1.297876278645e+00 1.290256193978e+00 1.282734722785e+00 1.275311156853e+00 1.267999890096e+00 1.260798801127e+00 1.253720822215e+00 1.246762641678e+00 1.239935832630e+00 1.233236105604e+00 1.226673782307e+00 1.220243792500e+00 1.213955315111e+00 1.207802677237e+00 1.201794021322e+00 1.195923229028e+00 1.190197508040e+00 1.184610430167e+00 1.179168363992e+00 1.173864685573e+00 1.168705013094e+00 1.163682620334e+00 1.158802456364e+00 1.154057766863e+00 1.149452905501e+00 1.144981146402e+00 1.140646314045e+00 1.136441751732e+00 1.132370813667e+00 1.128426939163e+00 1.124613064099e+00 1.120922738631e+00 1.117358525689e+00 1.113914090956e+00 1.110591663691e+00 1.107385021391e+00 1.104296093326e+00 1.101318758345e+00 1.098454674389e+00 1.095697805958e+00 1.093049563879e+00 1.090503978754e+00 1.088062234696e+00 1.085718406249e+00 1.083473468045e+00 1.081321514909e+00 1.079263326701e+00 1.077292994353e+00 1.075411115802e+00 1.073611754259e+00 1.071895337350e+00 1.070255877843e+00 1.068693644059e+00 1.067202577338e+00 1.065782797691e+00 1.064428156348e+00 1.063138636547e+00 1.061907983501e+00 1.060736056287e+00 1.059616481407e+00 1.058549007951e+00 1.057527134607e+00 1.056550516707e+00 1.055612519998e+00 1.054712724798e+00 1.053844363155e+00 1.053006962122e+00 1.052193624083e+00 1.051403848086e+00 1.050630616180e+00 1.049873428727e+00 1.049125162643e+00 1.048385353614e+00 1.047646795189e+00 1.046909097810e+00 1.046165000840e+00 1.045414235198e+00 1.044649523677e+00 1.043870770724e+00 1.043070729859e+00 1.042249540666e+00 1.041400045805e+00 1.040522691609e+00 1.039610481084e+00 1.038664250556e+00 1.037677249230e+00 1.036650800146e+00 1.035578501270e+00 1.034462274577e+00 1.033296188278e+00 1.032082893214e+00 1.030817070590e+00 1.029502250049e+00 1.028133892182e+00 1.026716577657e+00 1.025246738668e+00 1.023730203445e+00 1.022164595566e+00 1.020557213062e+00 1.018907119072e+00 1.017223329668e+00 1.015506623519e+00 1.013768007633e+00 1.012010277873e+00 1.010246729765e+00 1.008482521206e+00 1.006733686690e+00 1.005008914106e+00 1.003332162008e+00 1.001744293908e+00 1.000000000000e+00 1.000000000000e+00 1.000000000000e+00 1.000000000000e+00 