# vtk DataFile Version 3.0
Vortex Output
ASCII
DATASET STRUCTURED_POINTS
FIELD FieldData 2
TIME 1 1 double
0.002500
CYCLE 1 1 int
1
DIMENSIONS 514 130 1
ORIGIN 0 0 0
SPACING 1 1 1
POINT_DATA 66820
SCALARS u double 1
LOOKUP_TABLE default
9.996129448376e-01 9.996129448376e-01 1.000194048761e+00 9.993919634769e-01 9.999903048249e-01 9.991639495767e-01 9.997969257665e-01 9.989296624774e-01 9.996142302629e-01 9.986906156011e-01 9.994430883828e-01 9.984492854206e-01 9.992851009877e-01 9.982092744891e-01 9.991427271250e-01 9.979754144242e-01 9.990193481073e-01 9.977537952588e-01 9.989192580356e-01 9.975517088991e-01 9.988475722983e-01 9.973774968250e-01 9.988100483248e-01 9.972402958574e-01 9.988128167516e-01 9.971496809218e-01 9.988620263029e-01 9.971152102847e-01 9.989634120317e-01 9.971458865433e-01 9.991218039089e-01 9.972495553557e-01 9.993406006530e-01 9.974322728814e-01 9.996212414927e-01 9.976976813400e-01 9.999627153869e-01 9.980464389470e-01 1.000361152044e+00 9.984757546073e-01 1.000809540793e+00 9.989790780073e-01 1.001297620963e+00 9.995459912021e-01 1.001811980150e+00 1.000162337879e+00 1.002336384391e+00 1.000810611206e+00 1.002852347076e+00 1.001470601311e+00 1.003339922691e+00 1.002120280441e+00 1.003778688884e+00 1.002736880116e+00 1.004148858526e+00 1.003298092636e+00 1.004432445066e+00 1.003783312250e+00 1.004614392322e+00 1.004174821535e+00 1.004683576025e+00 1.004458828008e+00 1.004633590247e+00 1.004626265389e+00 1.004463247145e+00 1.004673292661e+00 1.004176742104e+00 1.004601450264e+00 1.003783465666e+00 1.004417463495e+00 1.003297475419e+00 1.004132714833e+00 1.002736671378e+00 1.003762435763e+00 1.002121743946e+00 1.003324691489e+00 1.001474981270e+00 1.002839246201e+00 1.000819031113e+00 1.002326401221e+00 1.000175710690e+00 1.001805893485e+00 9.995649472322e-01 1.001295928807e+00 9.990039142784e-01 1.000812405545e+00 9.985064065351e-01 1.000368362307e+00 9.980824724343e-01 9.999736610627e-01 9.977383010224e-01 9.996348968064e-01 9.974763406082e-01 9.993555085304e-01 9.972956121264e-01 9.991360547019e-01 9.971921710685e-01 9.989746100008e-01 9.971596680103e-01 9.988672383838e-01 9.971899586241e-01 9.988084998516e-01 9.972737186333e-01 9.987919535785e-01 9.974010263299e-01 9.988106272328e-01 9.975618839030e-01 9.988574303630e-01 9.977466579172e-01 9.989254977760e-01 9.979464280139e-01 9.990084562393e-01 9.981532406847e-01 9.991006141583e-01 9.983602714097e-01 9.991970788634e-01 9.985619033709e-01 9.992938097237e-01 9.987537343321e-01 9.993876175370e-01 9.989325252051e-01 9.994761216869e-01 9.990961044967e-01 9.995576765979e-01 9.992432424712e-01 9.996312783060e-01 9.993735077208e-01 9.996964607051e-01 9.994871171701e-01 9.997531894571e-01 9.995847885512e-01 9.998017598363e-01 9.996676023021e-01 9.998427030720e-01 9.997368777860e-01 9.998767041683e-01 9.997940668506e-01 9.999045327882e-01 9.998406661068e-01 9.999269876398e-01 9.998781479619e-01 9.999448539073e-01 9.999079094055e-01 9.999588726315e-01 9.999312368113e-01 9.999697205283e-01 9.999492845630e-01 9.999779985269e-01 9.999630650926e-01 9.999842272593e-01 9.999734478981e-01 9.999888478033e-01 9.999811652376e-01 9.999922261472e-01 9.999868224250e-01 9.999946600536e-01 9.999909109521e-01 9.999963872360e-01 9.999938229832e-01 9.999975940051e-01 9.999958660945e-01 9.999984237594e-01 9.999972774343e-01 9.999989848980e-01 9.999982367494e-01 9.999993578966e-01 9.999988779506e-01 9.999996014214e-01 9.999992990716e-01 9.999997574548e-01 9.999995706105e-01 9.999998554761e-01 9.999997423443e-01 9.999999157855e-01 9.999998487601e-01 9.999999520834e-01 9.999999132881e-01 9.999999734235e-01 9.999999515237e-01 9.999999856594e-01 9.999999736272e-01 9.999999924889e-01 9.999999860698e-01 9.999999961915e-01 9.999999928754e-01 9.999999981364e-01 9.999999964829e-01 9.999999991233e-01 9.999999983306e-01 9.999999996052e-01 9.999999992416e-01 9.999999998308e-01 9.999999996721e-01 9.999999999314e-01 9.999999998661e-01 9.999999999740e-01 9.999999999487e-01 9.999999999908e-01 9.999999999818e-01 9.999999999970e-01 9.999999999941e-01 9.999999999991e-01 9.999999999983e-01 9.999999999998e-01 9.999999999996e-01 1.000000000000e+00 9.999999999999e-01 1.000000000000e+00 1.000000000000e+00 1.000000000000e+00 1.000000000000e+00 1.000000000000e+00 1.000000000000e+00 1.000000000000e+00 1.000000000000e+00 1.000000000000e+00 1.000000000000e+00 1.000000000000e+00 1.000000000000e+00 1.000000000000e+00 1.000000000000e+00 1.000000000000e+00 1.000000000000e+00 1.000000000000e+00 1.000000000000e+00 1.000000000000e+00 1.000000000000e+00 1.000000000000e+00 1.000000000000e+00 1.000000000000e+00 1.000000000000e+00 1.000000000000e+00 1.000000000000e+00 1.000000000000e+00 1.000000000000e+00 1.000000000000e+00 1.000000000000e+00 1.000000000000e+00 1.000000000000e+00 1.000000000000e+00 1.000000000000e+00 1.000000000000e+00 1.000000000000e+00 1.000000000000e+00 1.000000000000e+00 1.000000000000e+00 1.000000000000e+00 1.000000000000e+00 1.000000000000e+00 1.000000000000e+00 1.000000000000e+00 1.000000000000e+00 1.000000000000e+00 1.000000000000e+00 1.000000000000e+00 1.000000000000e+00 1.000000000000e+00 1.000000000000e+00 1.000000000000e+00 1.000000000000e+00 1.000000000000e+00 1.000000000000e+00 1.000000000000e+00 1.000000000000e+00 1.000000000000e+00 1.000000000000e+00 1.000000000000e+00 1.000000000000e+00 1.000000000000e+00 1.000000000000e+00 1.000000000000e+00 1.000000000000e+00 1.000000000000e+00 1.000000000000e+00 1.000000000000e+00 1.000000000000e+00 1.000000000000e+00 1.000000000000e+00 1.000000000000e+00 1.000000000000e+00 1.000000000000e+00 1.000000000000e+00 1.000000000000e+00 1.000000000000e+00 1.000000000000e+00 1.000000000000e+00 1.000000000000e+00 1.000000000000e+00 1.000000000000e+00 1.000000000000e+00 1.000000000000e+00 1.000000000000e+00 1.000000000000e+00 1.000000000000e+00 1.000000000000e+00 1.000000000000e+00 1.000000000000e+00 1.000000000000e+00 1.000000000000e+00 1.000000000000e+00 1.000000000000e+00 1.000000000000e+00 1.000000000000e+00 1.000000000000e+00 1.000000000000e+00 1.000000000000e+00 1.000000000000e+00 1.000000000000e+00 1.000000000000e+00 1.000000000000e+00 1.000000000000e+00 1.000000000000e+00 1.000000000000e+00 1.000000000000e+00 1.000000000000e+00 1.000000000000e+00 1.000000000000e+00 1.000000000000e+00 1.000000000000e+00 1.000000000000e+00 1.000000000000e+00 1.000000000000e+00 1.000000000000e+00 1.000000000000e+00 1.000000000000e+00 1.000000000000e+00 1.000000000000e+00 1.000000000000e+00 1.000000000000e+00 1.000000000000e+00 1.000000000000e+00 1.000000000000e+00 1.000000000000e+00 1.000000000000e+00 1.000000000000e+00 1.000000000000e+00 1.000000000000e+00 1.000000000000e+00 1.000000000000e+00 1.000000000000e+00 1.000000000000e+00 1.000000000000e+00 1.000000000000e+00 1.000000000000e+00 1.000000000000e+00 1.000000000000e+00 1.000000000000e+00 1.000000000000e+00 1.000000000000e+00 1.000000000000e+00 1.000000000000e+00 1.000000000000e+00 1.000000000000e+00 1.000000000000e+00 1.000000000000e+00 1.000000000000e+00 1.000000000000e+00 1.000000000000e+00 1.000000000000e+00 1.000000000000e+00 1.000000000000e+00 1.000000000000e+00 1.000000000000e+00 1.000000000000e+00 1.000000000000e+00 1.000000000000e+00 1.000000000000e+00 1.000000000000e+00 1.000000000000e+00 1.000000000000e+00 1.000000000000e+00 1.000000000000e+00 1.000000000000e+00 1.000000000000e+00 1.000000000000e+00 1.000000000000e+00 1.000000000000e+00 1.000000000000e+00 1.000000000000e+00 1.000000000000e+00 1.000000000000e+00 1.000000000000e+00 1.000000000000e+00 1.000000000000e+00 1.000000000000e+00 1.000000000000e+00 1.000000000000e+00 1.000000000000e+00 1.000000000000e+00 1.000000000000e+00 1.000000000000e+00 1.000000000000e+00 1.000000000000e+00 1.000000000000e+00 1.000000000000e+00 1.000000000000e+00 1.000000000000e+00 1.000000000000e+00 1.000000000000e+00 1.000000000000e+00 1.000000000000e+00 1.000000000000e+00 1.000000000000e+00 1.000000000000e+00 1.000000000000e+00 1.000000000000e+00 1.000000000000e+00 1.000000000000e+00 1.000000000000e+00 1.000000000000e+00 1.000000000000e+00 1.000000000000e+00 1.000000000000e+00 1.000000000000e+00 1.000000000000e+00 1.000000000000e+00 1.000000000000e+00 1.000000000000e+00 1.000000000000e+00 1.000000000000e+00 1.000000000000e+00 1.000000000000e+00 1.000000000000e+00 1.000000000000e+00 1.000000000000e+00 1.000000000000e+00 1.000000000000e+00 1.000000000000e+00 1.000000000000e+00 1.000000000000e+00 1.000000000000e+00 1.000000000000e+00 1.000000000000e+00 1.000000000000e+00 1.000000000000e+00 1.000000000000e+00 1.000000000000e+00 1.000000000000e+00 1.000000000000e+00 1.000000000000e+00 1.000000000000e+00 1.000000000000e+00 1.000000000000e+00 1.000000000000e+00 1.000000000000e+00 1.000000000000e+00 1.000000000000e+00 1.000000000000e+00 1.000000000000e+00 1.000000000000e+00 1.000000000000e+00 1.000000000000e+00 1.000000000000e+00 1.000000000000e+00 1.000000000000e+00 1.000000000000e+00 1.000000000000e+00 1.000000000000e+00 1.000000000000e+00 1.000000000000e+00 1.000000000000e+00 1.000000000000e+00 1.000000000000e+00 1.000000000000e+00 1.000000000000e+00 1.000000000000e+00 1.000000000000e+00 1.000000000000e+00 1.000000000000e+00 1.000000000000e+00 1.000000000000e+00 1.000000000000e+00 1.000000000000e+00 1.000000000000e+00 1.000000000000e+00 1.000000000000e+00 1.000000000000e+00 1.000000000000e+00 1.000000000000e+00 1.000000000000e+00 1.000000000000e+00 1.000000000000e+00 1.000000000000e+00 1.000000000000e+00 1.000000000000e+00 1.000000000000e+00 1.000000000000e+00 1.000000000000e+00 1.000000000000e+00 1.000000000000e+00 1.000000000000e+00 1.000000000000e+00 1.000000000000e+00 1.000000000000e+00 1.000000000000e+00 1.000000000000e+00 1.000000000000e+00 1.000000000000e+00 1.000000000000e+00 1.000000000000e+00 1.000000000000e+00 1.000000000000e+00 1.000000000000e+00 1.000000000000e+00 1.000000000000e+00 1.000000000000e+00 1.000000000000e+00 1.000000000000e+00 1.000000000000e+00 1.000000000000e+00 1.000000000000e+00 1.000000000000e+00 1.000000000000e+00 1.000000000000e+00 
1.000000000000e+00 9.996129448376e-01 1.000194048761e+00 9.993919634769e-01 9.999903048249e-01 9.991639495767e-01 9.997969257665e-01 9.989296624774e-01 9.996142302629e-01 9.986906156011e-01 9.994430883828e-01 9.984492854206e-01 9.992851009877e-01 9.982092744891e-01 9.991427271250e-01 9.979754144242e-01 9.990193481073e-01 9.977537952588e-01 9.989192580356e-01 9.975517088991e-01 9.988475722983e-01 9.973774968250e-01 9.988100483248e-01 9.972402958574e-01 9.988128167516e-01 9.971496809218e-01 9.988620263029e-01 9.971152102847e-01 9.989634120317e-01 9.971458865433e-01 9.991218039089e-01 9.972495553557e-01 9.993406006530e-01 9.974322728814e-01 9.996212414927e-01 9.976976813400e-01 9.999627153869e-01 9.980464389470e-01 1.000361152044e+00 9.984757546073e-01 1.000809540793e+00 9.989790780073e-01 1.001297620963e+00 9.995459912021e-01 1.001811980150e+00 1.000162337879e+00 1.002336384391e+00 1.000810611206e+00 1.002852347076e+00 1.001470601311e+00 1.003339922691e+00 1.002120280441e+00 1.003778688884e+00 1.002736880116e+00 1.004148858526e+00 1.003298092636e+00 1.004432445066e+00 1.003783312250e+00 1.004614392322e+00 1.004174821535e+00 1.004683576025e+00 1.004458828008e+00 1.004633590247e+00 1.004626265389e+00 1.004463247145e+00 1.004673292661e+00 1.004176742104e+00 1.004601450264e+00 1.003783465666e+00 1.004417463495e+00 1.003297475419e+00 1.004132714833e+00 1.002736671378e+00 1.003762435763e+00 1.002121743946e+00 1.003324691489e+00 1.001474981270e+00 1.002839246201e+00 1.000819031113e+00 1.002326401221e+00 1.000175710690e+00 1.001805893485e+00 9.995649472322e-01 1.001295928807e+00 9.990039142784e-01 1.000812405545e+00 9.985064065351e-01 1.000368362307e+00 9.980824724343e-01 9.999736610627e-01 9.977383010224e-01 9.996348968064e-01 9.974763406082e-01 9.993555085304e-01 9.972956121264e-01 9.991360547019e-01 9.971921710685e-01 9.989746100008e-01 9.971596680103e-01 9.988672383838e-01 9.971899586241e-01 9.988084998516e-01 9.972737186333e-01 9.987919535785e-01 9.974010263299e-01 9.988106272328e-01 9.975618839030e-01 9.988574303630e-01 9.977466579172e-01 9.989254977760e-01 9.979464280139e-01 9.990084562393e-01 9.981532406847e-01 9.991006141583e-01 9.983602714097e-01 9.991970788634e-01 9.985619033709e-01 9.992938097237e-01 9.987537343321e-01 9.993876175370e-01 9.989325252051e-01 9.994761216869e-01 9.990961044967e-01 9.995576765979e-01 9.992432424712e-01 9.996312783060e-01 9.993735077208e-01 9.996964607051e-01 9.994871171701e-01 9.997531894571e-01 9.995847885512e-01 9.998017598363e-01 9.996676023021e-01 9.998427030720e-01 9.997368777860e-01 9.998767041683e-01 9.997940668506e-01 9.999045327882e-01 9.998406661068e-01 9.999269876398e-01 9.998781479619e-01 9.999448539073e-01 9.999079094055e-01 9.999588726315e-01 9.999312368113e-01 9.999697205283e-01 9.999492845630e-01 9.999779985269e-01 9.999630650926e-01 9.999842272593e-01 9.999734478981e-01 9.999888478033e-01 9.999811652376e-01 9.999922261472e-01 9.999868224250e-01 9.999946600536e-01 9.999909109521e-01 9.999963872360e-01 9.999938229832e-01 9.999975940051e-01 9.999958660945e-01 9.999984237594e-01 9.999972774343e-01 9.999989848980e-01 9.999982367494e-01 9.999993578966e-01 9.999988779506e-01 9.999996014214e-01 9.999992990716e-01 9.999997574548e-01 9.999995706105e-01 9.999998554761e-01 9.999997423443e-01 9.999999157855e-01 9.999998487601e-01 9.999999520834e-01 9.999999132881e-01 9.999999734235e-01 9.999999515237e-01 9.999999856594e-01 9.999999736272e-01 9.999999924889e-01 9.999999860698e-01 9.999999961915e-01 9.999999928754e-01 9.999999981364e-01 9.999999964829e-01 9.999999991233e-01 9.999999983306e-01 9.999999996052e-01 9.999999992416e-01 9.999999998308e-01 9.999999996721e-01 9.999999999314e-01 9.999999998661e-01 9.999999999740e-01 9.999999999487e-01 9.999999999908e-01 9.999999999818e-01 9.999999999970e-01 9.999999999941e-01 9.999999999991e-01 9.999999999983e-01 9.999999999998e-01 9.999999999996e-01 1.000000000000e+00 9.999999999999e-01 1.000000000000e+00 1.000000000000e+00 1.000000000000e+00 1.000000000000e+00 1.000000000000e+00 1.000000000000e+00 1.000000000000e+00 1.000000000000e+00 1.000000000000e+00 1.000000000000e+00 1.000000000000e+00 1.000000000000e+00 1.000000000000e+00 1.000000000000e+00 1.000000000000e+00 1.000000000000e+00 1.000000000000e+00 1.000000000000e+00 1.000000000000e+00 1.000000000000e+00 1.000000000000e+00 1.000000000000e+00 1.000000000000e+00 1.000000000000e+00 1.000000000000e+00 1.000000000000e+00 1.000000000000e+00 1.000000000000e+00 1.000000000000e+00 1.000000000000e+00 1.000000000000e+00 1.000000000000e+00 1.000000000000e+00 1.000000000000e+00 1.000000000000e+00 1.000000000000e+00 1.000000000000e+00 1.000000000000e+00 1.000000000000e+00 1.000000000000e+00 1.000000000000e+00 1.000000000000e+00 1.000000000000e+00 1.000000000000e+00 1.000000000000e+00 1.000000000000e+00 1.000000000000e+00 1.000000000000e+00 1.000000000000e+00 1.000000000000e+00 1.000000000000e+00 1.000000000000e+00 1.000000000000e+00 1.000000000000e+00 1.000000000000e+00 1.000000000000e+00 1.000000000000e+00 1.000000000000e+00 1.000000000000e+00 1.000000000000e+00 1.000000000000e+00 1.000000000000e+00 1.000000000000e+00 1.000000000000e+00 1.000000000000e+00 1.000000000000e+00 1.000000000000e+00 1.000000000000e+00 1.000000000000e+00 1.000000000000e+00 1.000000000000e+00 1.000000000000e+00 1.000000000000e+00 1.000000000000e+00 1.000000000000e+00 1.000000000000e+00 1.000000000000e+00 1.000000000000e+00 1.000000000000e+00 1.000000000000e+00 1.000000000000e+00 1.000000000000e+00 1.000000000000e+00 1.000000000000e+00 1.000000000000e+00 1.000000000000e+00 1.000000000000e+00 1.000000000000e+00 1.000000000000e+00 1.000000000000e+00 1.000000000000e+00 1.000000000000e+00 1.000000000000e+00 1.000000000000e+00 1.000000000000e+00 1.000000000000e+00 1.000000000000e+00 1.000000000000e+00 1.000000000000e+00 1.000000000000e+00 1.000000000000e+00 1.000000000000e+00 1.000000000000e+00 1.000000000000e+00 1.000000000000e+00 1.000000000000e+00 1.000000000000e+00 1.000000000000e+00 1.000000000000e+00 1.000000000000e+00 1.000000000000e+00 1.000000000000e+00 1.000000000000e+00 1.000000000000e+00 1.000000000000e+00 1.000000000000e+00 1.000000000000e+00 1.000000000000e+00 1.000000000000e+00 1.000000000000e+00 1.000000000000e+00 1.000000000000e+00 1.000000000000e+00 1.000000000000e+00 1.000000000000e+00 1.000000000000e+00 1.000000000000e+00 1.000000000000e+00 1.000000000000e+00 1.000000000000e+00 1.000000000000e+00 1.000000000000e+00 1.000000000000e+00 1.000000000000e+00 1.000000000000e+00 1.000000000000e+00 1.000000000000e+00 1.000000000000e+00 1.000000000000e+00 1.000000000000e+00 1.000000000000e+00 1.000000000000e+00 1.000000000000e+00 1.000000000000e+00 1.000000000000e+00 1.000000000000e+00 1.000000000000e+00 1.000000000000e+00 1.000000000000e+00 1.000000000000e+00 1.000000000000e+00 1.000000000000e+00 1.000000000000e+00 1.000000000000e+00 1.000000000000e+00 1.000000000000e+00 1.000000000000e+00 1.000000000000e+00 1.000000000000e+00 1.000000000000e+00 1.000000000000e+00 1.000000000000e+00 1.000000000000e+00 1.000000000000e+00 1.000000000000e+00 1.000000000000e+00 1.000000000000e+00 1.000000000000e+00 1.000000000000e+00 1.000000000000e+00 1.000000000000e+00 1.000000000000e+00 1.000000000000e+00 1.000000000000e+00 1.000000000000e+00 1.000000000000e+00 1.000000000000e+00 1.000000000000e+00 1.000000000000e+00 1.000000000000e+00 1.000000000000e+00 1.000000000000e+00 1.000000000000e+00 1.000000000000e+00 1.000000000000e+00 1.000000000000e+00 1.000000000000e+00 1.000000000000e+00 1.000000000000e+00 1.000000000000e+00 1.000000000000e+00 1.000000000000e+00 1.000000000000e+00 1.000000000000e+00 1.000000000000e+00 1.000000000000e+00 1.000000000000e+00 1.000000000000e+00 1.000000000000e+00 1.000000000000e+00 1.000000000000e+00 1.000000000000e+00 1.000000000000e+00 1.000000000000e+00 1.000000000000e+00 1.000000000000e+00 1.000000000000e+00 1.000000000000e+00 1.000000000000e+00 1.000000000000e+00 1.000000000000e+00 1.000000000000e+00 1.000000000000e+00 1.000000000000e+00 1.000000000000e+00 1.000000000000e+00 1.000000000000e+00 1.000000000000e+00 1.000000000000e+00 1.000000000000e+00 1.000000000000e+00 1.000000000000e+00 1.000000000000e+00 1.000000000000e+00 1.000000000000e+00 1.000000000000e+00 1.000000000000e+00 1.000000000000e+00 1.000000000000e+00 1.000000000000e+00 1.000000000000e+00 1.000000000000e+00 1.000000000000e+00 1.000000000000e+00 1.000000000000e+00 1.000000000000e+00 1.000000000000e+00 1.000000000000e+00 1.000000000000e+00 1.000000000000e+00 1.000000000000e+00 1.000000000000e+00 1.000000000000e+00 1.000000000000e+00 1.000000000000e+00 1.000000000000e+00 1.000000000000e+00 1.000000000000e+00 1.000000000000e+00 1.000000000000e+00 1.000000000000e+00 1.000000000000e+00 1.000000000000e+00 1.000000000000e+00 1.000000000000e+00 1.000000000000e+00 1.000000000000e+00 1.000000000000e+00 1.000000000000e+00 1.000000000000e+00 1.000000000000e+00 1.000000000000e+00 1.000000000000e+00 1.000000000000e+00 1.000000000000e+00 1.000000000000e+00 1.000000000000e+00 1.000000000000e+00 1.000000000000e+00 1.000000000000e+00 1.000000000000e+00 1.000000000000e+00 1.000000000000e+00 1.000000000000e+00 1.000000000000e+00 1.000000000000e+00 1.000000000000e+00 1.000000000000e+00 1.000000000000e+00 1.000000000000e+00 1.000000000000e+00 1.000000000000e+00 1.000000000000e+00 1.000000000000e+00 1.000000000000e+00 1.000000000000e+00 1.000000000000e+00 1.000000000000e+00 1.000000000000e+00 1.000000000000e+00 1.000000000000e+00 1.000000000000e+00 1.000000000000e+00 1.000000000000e+00 1.000000000000e+00 1.000000000000e+00 1.000000000000e+00 1.000000000000e+00 1.000000000000e+00 1.000000000000e+00 1.000000000000e+00 1.000000000000e+00 1.000000000000e+00 1.000000000000e+00 1.000000000000e+00 1.000000000000e+00 1.000000000000e+00 
1.000000000000e+00 1.000301001351e+00 9.994993038900e-01 1.000089752643e+00 9.992722696942e-01 9.998888867206e-01 9.990384083221e-01 9.996985076727e-01 9.987988167567e-01 9.995191734275e-01 9.985554671120e-01 9.993521000246e-01 9.983113976838e-01 9.991993194319e-01 9.980708505798e-01 9.990637791171e-01 9.978393418090e-01 9.989493723426e-01 9.976236505624e-01 9.988608895036e-01 9.974317162140e-01 9.988038830363e-01 9.972724345749e-01 9.987844417047e-01 9.971553493219e-01 9.988088746014e-01 9.970902403994e-01 9.988833110063e-01 9.970866184815e-01 9.990132292288e-01 9.971531430257e-01 9.992029353980e-01 9.972969905686e-01 9.994550213087e-01 9.975232089669e-01 9.997698381077e-01 9.978341013301e-01 1.000145028820e+00 9.982286892905e-01 1.000575166370e+00 9.987023078147e-01 1.001051543705e+00 9.992463818818e-01 1.001562157994e+00 9.998484281943e-01 1.002091920964e+00 1.000492312322e+00 1.002623112382e+00 1.001158773638e+00 1.003136074110e+00 1.001826208238e+00 1.003610119617e+00 1.002471675661e+00 1.004024610597e+00 1.003072071308e+00 1.004360131146e+00 1.003605385869e+00 1.004599673744e+00 1.004051958816e+00 1.004729742634e+00 1.004395627392e+00 1.004741280957e+00 1.004624676964e+00 1.004630338834e+00 1.004732513149e+00 1.004398419838e+00 1.004717999598e+00 1.004052470944e+00 1.004585435058e+00 1.003604512999e+00 1.004344175986e+00 1.003070941304e+00 1.004007942666e+00 1.002471555115e+00 1.003593873733e+00 1.001828397465e+00 1.003121413280e+00 1.001164500155e+00 1.002611124427e+00 1.000502632037e+00 1.002083522798e+00 9.998641419597e-01 1.001558013747e+00 9.992679726653e-01 1.001052000233e+00 9.987299008364e-01 1.000580206777e+00 9.982620345004e-01 1.000154241754e+00 9.978725749226e-01 9.997823982537e-01 9.975658285625e-01 9.994696748020e-01 9.973424374106e-01 9.992179830644e-01 9.971997841008e-01 9.990265005859e-01 9.971325218278e-01 9.988921227717e-01 9.971331778967e-01 9.988099689382e-01 9.971927828128e-01 9.987739014429e-01 9.973014830992e-01 9.987770235203e-01 9.974491043085e-01 9.988121294057e-01 9.976256398915e-01 9.988720886651e-01 9.978216507661e-01 9.989501545933e-01 9.980285688659e-01 9.990401935380e-01 9.982389051797e-01 9.991368377368e-01 9.984463685209e-01 9.992355685521e-01 9.986459054186e-01 9.993327398746e-01 9.988336741449e-01 9.994255530576e-01 9.990069671336e-01 9.995119952140e-01 9.991640961343e-01 9.995907523081e-01 9.993042536200e-01 9.996611074121e-01 9.994273624868e-01 9.997228330235e-01 9.995339241931e-01 9.997760846338e-01 9.996248733897e-01 9.998213009888e-01 9.997014449752e-01 9.998591147926e-01 9.997650575125e-01 9.998902761008e-01 9.998172151541e-01 9.999155893583e-01 9.998594287172e-01 9.999358640104e-01 9.998931553524e-01 9.999518778447e-01 9.999197553606e-01 9.999643517000e-01 9.999404641241e-01 9.999739338711e-01 9.999563767832e-01 9.999811924194e-01 9.999684431836e-01 9.999866136177e-01 9.999774706813e-01 9.999906048853e-01 9.999841325809e-01 9.999935007650e-01 9.999889802590e-01 9.999955707246e-01 9.999924573427e-01 9.999970278106e-01 9.999949146431e-01 9.999980374168e-01 9.999966248659e-01 9.999987256463e-01 9.999977964115e-01 9.999991869283e-01 9.999985858292e-01 9.999994907035e-01 9.999991086938e-01 9.999996871077e-01 9.999994488357e-01 9.999998116667e-01 9.999996659694e-01 9.999998890747e-01 9.999998018466e-01 9.999999361596e-01 9.999998851021e-01 9.999999641552e-01 9.999999349847e-01 9.999999804016e-01 9.999999641653e-01 9.999999895876e-01 9.999999808026e-01 9.999999946378e-01 9.999999900291e-01 9.999999973311e-01 9.999999949939e-01 9.999999987206e-01 9.999999975790e-01 9.999999994117e-01 9.999999988769e-01 9.999999997419e-01 9.999999995029e-01 9.999999998926e-01 9.999999997914e-01 9.999999999579e-01 9.999999999177e-01 9.999999999846e-01 9.999999999697e-01 9.999999999948e-01 9.999999999898e-01 9.999999999984e-01 9.999999999969e-01 9.999999999996e-01 9.999999999992e-01 9.999999999999e-01 9.999999999998e-01 1.000000000000e+00 1.000000000000e+00 1.000000000000e+00 1.000000000000e+00 1.000000000000e+00 1.000000000000e+00 1.000000000000e+00 1.000000000000e+00 1.000000000000e+00 1.000000000000e+00 1.000000000000e+00 1.000000000000e+00 1.000000000000e+00 1.000000000000e+00 1.000000000000e+00 1.000000000000e+00 1.000000000000e+00 1.000000000000e+00 1.000000000000e+00 1.000000000000e+00 1.000000000000e+00 1.000000000000e+00 1.000000000000e+00 1.000000000000e+00 1.000000000000e+00 1.000000000000e+00 1.000000000000e+00 1.000000000000e+00 1.000000000000e+00 1.000000000000e+00 1.000000000000e+00 1.000000000000e+00 1.000000000000e+00 1.000000000000e+00 1.000000000000e+00 1.000000000000e+00 1.000000000000e+00 1.000000000000e+00 1.000000000000e+00 1.000000000000e+00 1.000000000000e+00 1.000000000000e+00 1.000000000000e+00 1.000000000000e+00 1.000000000000e+00 1.000000000000e+00 1.000000000000e+00 1.000000000000e+00 1.000000000000e+00 1.000000000000e+00 1.000000000000e+00 1.000000000000e+00 1.000000000000e+00 1.000000000000e+00 1.000000000000e+00 1.000000000000e+00 1.000000000000e+00 1.000000000000e+00 1.000000000000e+00 1.000000000000e+00 1.000000000000e+00 1.000000000000e+00 1.000000000000e+00 1.000000000000e+00 1.000000000000e+00 1.000000000000e+00 1.000000000000e+00 1.000000000000e+00 1.000000000000e+00 1.000000000000e+00 1.000000000000e+00 1.000000000000e+00 1.000000000000e+00 1.000000000000e+00 1.000000000000e+00 1.000000000000e+00 1.000000000000e+00 1.000000000000e+00 1.000000000000e+00 1.000000000000e+00 1.000000000000e+00 1.000000000000e+00 1.000000000000e+00 1.000000000000e+00 1.000000000000e+00 1.000000000000e+00 1.000000000000e+00 1.000000000000e+00 1.000000000000e+00 1.000000000000e+00 1.000000000000e+00 1.000000000000e+00 1.000000000000e+00 1.000000000000e+00 1.000000000000e+00 1.000000000000e+00 1.000000000000e+00 1.000000000000e+00 1.000000000000e+00 1.000000000000e+00 1.000000000000e+00 1.000000000000e+00 1.000000000000e+00 1.000000000000e+00 1.000000000000e+00 1.000000000000e+00 1.000000000000e+00 1.000000000000e+00 1.000000000000e+00 1.000000000000e+00 1.000000000000e+00 1.000000000000e+00 1.000000000000e+00 1.000000000000e+00 1.000000000000e+00 1.000000000000e+00 1.000000000000e+00 1.000000000000e+00 1.000000000000e+00 1.000000000000e+00 1.000000000000e+00 1.000000000000e+00 1.000000000000e+00 1.000000000000e+00 1.000000000000e+00 1.000000000000e+00 1.000000000000e+00 1.000000000000e+00 1.000000000000e+00 1.000000000000e+00 1.000000000000e+00 1.000000000000e+00 1.000000000000e+00 1.000000000000e+00 1.000000000000e+00 1.000000000000e+00 1.000000000000e+00 1.000000000000e+00 1.000000000000e+00 1.000000000000e+00 1.000000000000e+00 1.000000000000e+00 1.000000000000e+00 1.000000000000e+00 1.000000000000e+00 1.000000000000e+00 1.000000000000e+00 1.000000000000e+00 1.000000000000e+00 1.000000000000e+00 1.000000000000e+00 1.000000000000e+00 1.000000000000e+00 1.000000000000e+00 1.000000000000e+00 1.000000000000e+00 1.000000000000e+00 1.000000000000e+00 1.000000000000e+00 1.000000000000e+00 1.000000000000e+00 1.000000000000e+00 1.000000000000e+00 1.000000000000e+00 1.000000000000e+00 1.000000000000e+00 1.000000000000e+00 1.000000000000e+00 1.000000000000e+00 1.000000000000e+00 1.000000000000e+00 1.000000000000e+00 1.000000000000e+00 1.000000000000e+00 1.000000000000e+00 1.000000000000e+00 1.000000000000e+00 1.000000000000e+00 1.000000000000e+00 1.000000000000e+00 1.000000000000e+00 1.000000000000e+00 1.000000000000e+00 1.000000000000e+00 1.000000000000e+00 1.000000000000e+00 1.000000000000e+00 1.000000000000e+00 1.000000000000e+00 1.000000000000e+00 1.000000000000e+00 1.000000000000e+00 1.000000000000e+00 1.000000000000e+00 1.000000000000e+00 1.000000000000e+00 1.000000000000e+00 1.000000000000e+00 1.000000000000e+00 1.000000000000e+00 1.000000000000e+00 1.000000000000e+00 1.000000000000e+00 1.000000000000e+00 1.000000000000e+00 1.000000000000e+00 1.000000000000e+00 1.000000000000e+00 1.000000000000e+00 1.000000000000e+00 1.000000000000e+00 1.000000000000e+00 1.000000000000e+00 1.000000000000e+00 1.000000000000e+00 1.000000000000e+00 1.000000000000e+00 1.000000000000e+00 1.000000000000e+00 1.000000000000e+00 1.000000000000e+00 1.000000000000e+00 1.000000000000e+00 1.000000000000e+00 1.000000000000e+00 1.000000000000e+00 1.000000000000e+00 1.000000000000e+00 1.000000000000e+00 1.000000000000e+00 1.000000000000e+00 1.000000000000e+00 1.000000000000e+00 1.000000000000e+00 1.000000000000e+00 1.000000000000e+00 1.000000000000e+00 1.000000000000e+00 1.000000000000e+00 1.000000000000e+00 1.000000000000e+00 1.000000000000e+00 1.000000000000e+00 1.000000000000e+00 1.000000000000e+00 1.000000000000e+00 1.000000000000e+00 1.000000000000e+00 1.000000000000e+00 1.000000000000e+00 1.000000000000e+00 1.000000000000e+00 1.000000000000e+00 1.000000000000e+00 1.000000000000e+00 1.000000000000e+00 1.000000000000e+00 1.000000000000e+00 1.000000000000e+00 1.000000000000e+00 1.000000000000e+00 1.000000000000e+00 1.000000000000e+00 1.000000000000e+00 1.000000000000e+00 1.000000000000e+00 1.000000000000e+00 1.000000000000e+00 1.000000000000e+00 1.000000000000e+00 1.000000000000e+00 1.000000000000e+00 1.000000000000e+00 1.000000000000e+00 1.000000000000e+00 1.000000000000e+00 1.000000000000e+00 1.000000000000e+00 1.000000000000e+00 1.000000000000e+00 1.000000000000e+00 1.000000000000e+00 1.000000000000e+00 1.000000000000e+00 1.000000000000e+00 1.000000000000e+00 1.000000000000e+00 1.000000000000e+00 1.000000000000e+00 1.000000000000e+00 1.000000000000e+00 1.000000000000e+00 1.000000000000e+00 1.000000000000e+00 1.000000000000e+00 1.000000000000e+00 1.000000000000e+00 1.000000000000e+00 1.000000000000e+00 1.000000000000e+00 1.000000000000e+00 1.000000000000e+00 1.000000000000e+00 1.000000000000e+00 1.000000000000e+00 1.000000000000e+00 1.000000000000e+00 1.000000000000e+00 